# vtk DataFile Version 3.0
results.vtk
ASCII
DATASET RECTILINEAR_GRID
DIMENSIONS 301 301 1
X_COORDINATES 301 double
0.000000 0.003333 0.006667 0.010000 0.013333 0.016667 0.020000 0.023333 0.026667 0.030000 0.033333 0.036667 0.040000 0.043333 0.046667 0.050000 0.053333 0.056667 0.060000 0.063333 0.066667 0.070000 0.073333 0.076667 0.080000 0.083333 0.086667 0.090000 0.093333 0.096667 0.100000 0.103333 0.106667 0.110000 0.113333 0.116667 0.120000 0.123333 0.126667 0.130000 0.133333 0.136667 0.140000 0.143333 0.146667 0.150000 0.153333 0.156667 0.160000 0.163333 0.166667 0.170000 0.173333 0.176667 0.180000 0.183333 0.186667 0.190000 0.193333 0.196667 0.200000 0.203333 0.206667 0.210000 0.213333 0.216667 0.220000 0.223333 0.226667 0.230000 0.233333 0.236667 0.240000 0.243333 0.246667 0.250000 0.253333 0.256667 0.260000 0.263333 0.266667 0.270000 0.273333 0.276667 0.280000 0.283333 0.286667 0.290000 0.293333 0.296667 0.300000 0.303333 0.306667 0.310000 0.313333 0.316667 0.320000 0.323333 0.326667 0.330000 0.333333 0.336667 0.340000 0.343333 0.346667 0.350000 0.353333 0.356667 0.360000 0.363333 0.366667 0.370000 0.373333 0.376667 0.380000 0.383333 0.386667 0.390000 0.393333 0.396667 0.400000 0.403333 0.406667 0.410000 0.413333 0.416667 0.420000 0.423333 0.426667 0.430000 0.433333 0.436667 0.440000 0.443333 0.446667 0.450000 0.453333 0.456667 0.460000 0.463333 0.466667 0.470000 0.473333 0.476667 0.480000 0.483333 0.486667 0.490000 0.493333 0.496667 0.500000 0.503333 0.506667 0.510000 0.513333 0.516667 0.520000 0.523333 0.526667 0.530000 0.533333 0.536667 0.540000 0.543333 0.546667 0.550000 0.553333 0.556667 0.560000 0.563333 0.566667 0.570000 0.573333 0.576667 0.580000 0.583333 0.586667 0.590000 0.593333 0.596667 0.600000 0.603333 0.606667 0.610000 0.613333 0.616667 0.620000 0.623333 0.626667 0.630000 0.633333 0.636667 0.640000 0.643333 0.646667 0.650000 0.653333 0.656667 0.660000 0.663333 0.666667 0.670000 0.673333 0.676667 0.680000 0.683333 0.686667 0.690000 0.693333 0.696667 0.700000 0.703333 0.706667 0.710000 0.713333 0.716667 0.720000 0.723333 0.726667 0.730000 0.733333 0.736667 0.740000 0.743333 0.746667 0.750000 0.753333 0.756667 0.760000 0.763333 0.766667 0.770000 0.773333 0.776667 0.780000 0.783333 0.786667 0.790000 0.793333 0.796667 0.800000 0.803333 0.806667 0.810000 0.813333 0.816667 0.820000 0.823333 0.826667 0.830000 0.833333 0.836667 0.840000 0.843333 0.846667 0.850000 0.853333 0.856667 0.860000 0.863333 0.866667 0.870000 0.873333 0.876667 0.880000 0.883333 0.886667 0.890000 0.893333 0.896667 0.900000 0.903333 0.906667 0.910000 0.913333 0.916667 0.920000 0.923333 0.926667 0.930000 0.933333 0.936667 0.940000 0.943333 0.946667 0.950000 0.953333 0.956667 0.960000 0.963333 0.966667 0.970000 0.973333 0.976667 0.980000 0.983333 0.986667 0.990000 0.993333 0.996667 1.000000 
Y_COORDINATES 301 double
0.000000 0.003333 0.006667 0.010000 0.013333 0.016667 0.020000 0.023333 0.026667 0.030000 0.033333 0.036667 0.040000 0.043333 0.046667 0.050000 0.053333 0.056667 0.060000 0.063333 0.066667 0.070000 0.073333 0.076667 0.080000 0.083333 0.086667 0.090000 0.093333 0.096667 0.100000 0.103333 0.106667 0.110000 0.113333 0.116667 0.120000 0.123333 0.126667 0.130000 0.133333 0.136667 0.140000 0.143333 0.146667 0.150000 0.153333 0.156667 0.160000 0.163333 0.166667 0.170000 0.173333 0.176667 0.180000 0.183333 0.186667 0.190000 0.193333 0.196667 0.200000 0.203333 0.206667 0.210000 0.213333 0.216667 0.220000 0.223333 0.226667 0.230000 0.233333 0.236667 0.240000 0.243333 0.246667 0.250000 0.253333 0.256667 0.260000 0.263333 0.266667 0.270000 0.273333 0.276667 0.280000 0.283333 0.286667 0.290000 0.293333 0.296667 0.300000 0.303333 0.306667 0.310000 0.313333 0.316667 0.320000 0.323333 0.326667 0.330000 0.333333 0.336667 0.340000 0.343333 0.346667 0.350000 0.353333 0.356667 0.360000 0.363333 0.366667 0.370000 0.373333 0.376667 0.380000 0.383333 0.386667 0.390000 0.393333 0.396667 0.400000 0.403333 0.406667 0.410000 0.413333 0.416667 0.420000 0.423333 0.426667 0.430000 0.433333 0.436667 0.440000 0.443333 0.446667 0.450000 0.453333 0.456667 0.460000 0.463333 0.466667 0.470000 0.473333 0.476667 0.480000 0.483333 0.486667 0.490000 0.493333 0.496667 0.500000 0.503333 0.506667 0.510000 0.513333 0.516667 0.520000 0.523333 0.526667 0.530000 0.533333 0.536667 0.540000 0.543333 0.546667 0.550000 0.553333 0.556667 0.560000 0.563333 0.566667 0.570000 0.573333 0.576667 0.580000 0.583333 0.586667 0.590000 0.593333 0.596667 0.600000 0.603333 0.606667 0.610000 0.613333 0.616667 0.620000 0.623333 0.626667 0.630000 0.633333 0.636667 0.640000 0.643333 0.646667 0.650000 0.653333 0.656667 0.660000 0.663333 0.666667 0.670000 0.673333 0.676667 0.680000 0.683333 0.686667 0.690000 0.693333 0.696667 0.700000 0.703333 0.706667 0.710000 0.713333 0.716667 0.720000 0.723333 0.726667 0.730000 0.733333 0.736667 0.740000 0.743333 0.746667 0.750000 0.753333 0.756667 0.760000 0.763333 0.766667 0.770000 0.773333 0.776667 0.780000 0.783333 0.786667 0.790000 0.793333 0.796667 0.800000 0.803333 0.806667 0.810000 0.813333 0.816667 0.820000 0.823333 0.826667 0.830000 0.833333 0.836667 0.840000 0.843333 0.846667 0.850000 0.853333 0.856667 0.860000 0.863333 0.866667 0.870000 0.873333 0.876667 0.880000 0.883333 0.886667 0.890000 0.893333 0.896667 0.900000 0.903333 0.906667 0.910000 0.913333 0.916667 0.920000 0.923333 0.926667 0.930000 0.933333 0.936667 0.940000 0.943333 0.946667 0.950000 0.953333 0.956667 0.960000 0.963333 0.966667 0.970000 0.973333 0.976667 0.980000 0.983333 0.986667 0.990000 0.993333 0.996667 1.000000 
Z_COORDINATES 1 double
0
POINT_DATA 90601 
FIELD FieldData 1 
Concentração 1 90601 double 
0.000000 
0.000000 
0.000000 
0.000000 
0.000000 
0.000000 
0.000000 
0.000000 
0.000000 
0.000000 
0.000000 
0.000000 
0.000000 
0.000000 
0.000000 
0.000000 
0.000000 
0.000000 
0.000000 
0.000000 
0.000000 
0.000000 
0.000000 
0.000000 
0.000000 
0.000000 
0.000000 
0.000000 
0.000000 
0.000000 
0.000000 
0.000000 
0.000000 
0.000000 
0.000000 
0.000000 
0.000000 
0.000000 
0.000000 
0.000000 
0.000000 
0.000000 
0.000000 
0.000000 
0.000000 
0.000000 
0.000000 
0.000000 
0.000000 
0.000000 
0.000000 
0.000000 
0.000000 
0.000000 
0.000001 
0.000001 
0.000001 
0.000001 
0.000001 
0.000001 
0.000001 
0.000001 
0.000001 
0.000001 
0.000001 
0.000001 
0.000002 
0.000002 
0.000002 
0.000002 
0.000002 
0.000002 
0.000002 
0.000003 
0.000003 
0.000003 
0.000003 
0.000004 
0.000004 
0.000004 
0.000005 
0.000005 
0.000005 
0.000006 
0.000006 
0.000007 
0.000007 
0.000008 
0.000008 
0.000009 
0.000010 
0.000010 
0.000011 
0.000012 
0.000013 
0.000014 
0.000015 
0.000016 
0.000017 
0.000018 
0.000020 
0.000021 
0.000023 
0.000024 
0.000026 
0.000028 
0.000030 
0.000032 
0.000034 
0.000036 
0.000039 
0.000041 
0.000044 
0.000047 
0.000050 
0.000053 
0.000057 
0.000060 
0.000064 
0.000068 
0.000072 
0.000077 
0.000082 
0.000087 
0.000092 
0.000098 
0.000104 
0.000110 
0.000116 
0.000123 
0.000131 
0.000138 
0.000146 
0.000155 
0.000164 
0.000173 
0.000183 
0.000193 
0.000203 
0.000215 
0.000226 
0.000238 
0.000251 
0.000265 
0.000279 
0.000293 
0.000308 
0.000324 
0.000341 
0.000358 
0.000376 
0.000394 
0.000414 
0.000434 
0.000455 
0.000476 
0.000499 
0.000522 
0.000547 
0.000572 
0.000598 
0.000625 
0.000653 
0.000682 
0.000712 
0.000743 
0.000775 
0.000808 
0.000842 
0.000877 
0.000913 
0.000950 
0.000988 
0.001028 
0.001068 
0.001110 
0.001153 
0.001197 
0.001242 
0.001288 
0.001336 
0.001385 
0.001434 
0.001486 
0.001538 
0.001591 
0.001646 
0.001702 
0.001759 
0.001817 
0.001876 
0.001937 
0.001999 
0.002061 
0.002125 
0.002191 
0.002257 
0.002324 
0.002393 
0.002462 
0.002532 
0.002604 
0.002677 
0.002750 
0.002824 
0.002900 
0.002976 
0.003053 
0.003131 
0.003210 
0.003290 
0.003370 
0.003451 
0.003533 
0.003615 
0.003698 
0.003782 
0.003866 
0.003951 
0.004036 
0.004121 
0.004207 
0.004293 
0.004380 
0.004467 
0.004554 
0.004641 
0.004728 
0.004815 
0.004903 
0.004990 
0.005078 
0.005165 
0.005252 
0.005339 
0.005426 
0.005512 
0.005599 
0.005684 
0.005770 
0.005855 
0.005939 
0.006023 
0.006107 
0.006190 
0.006272 
0.006353 
0.006434 
0.006514 
0.006593 
0.006672 
0.006749 
0.006826 
0.006901 
0.006976 
0.007049 
0.007122 
0.007193 
0.007263 
0.007332 
0.007400 
0.007467 
0.007532 
0.007596 
0.007659 
0.007720 
0.007780 
0.007838 
0.007895 
0.007951 
0.008005 
0.008058 
0.008109 
0.008158 
0.008206 
0.008253 
0.008297 
0.008341 
0.008382 
0.008422 
0.008460 
0.008496 
0.008531 
0.008564 
0.008595 
0.008624 
0.008652 
0.008678 
0.008702 
0.008724 
0.008744 
0.008763 
0.008779 
0.008794 
0.008807 
0.008818 
0.008828 
0.008835 
0.008841 
0.008845 
0.008846 
0.000000 
0.000000 
0.000000 
0.000000 
0.000000 
0.000000 
0.000000 
0.000000 
0.000000 
0.000000 
0.000000 
0.000000 
0.000000 
0.000000 
0.000000 
0.000000 
0.000000 
0.000000 
0.000000 
0.000000 
0.000000 
0.000000 
0.000000 
0.000000 
0.000000 
0.000000 
0.000000 
0.000000 
0.000000 
0.000000 
0.000000 
0.000000 
0.000000 
0.000000 
0.000000 
0.000000 
0.000000 
0.000000 
0.000000 
0.000000 
0.000000 
0.000000 
0.000000 
0.000000 
0.000000 
0.000000 
0.000001 
0.000001 
0.000001 
0.000001 
0.000001 
0.000001 
0.000001 
0.000001 
0.000001 
0.000001 
0.000001 
0.000001 
0.000002 
0.000002 
0.000002 
0.000002 
0.000002 
0.000002 
0.000003 
0.000003 
0.000003 
0.000003 
0.000004 
0.000004 
0.000004 
0.000005 
0.000005 
0.000005 
0.000006 
0.000006 
0.000007 
0.000007 
0.000008 
0.000009 
0.000009 
0.000010 
0.000011 
0.000012 
0.000012 
0.000013 
0.000014 
0.000016 
0.000017 
0.000018 
0.000019 
0.000021 
0.000022 
0.000024 
0.000026 
0.000028 
0.000030 
0.000032 
0.000034 
0.000037 
0.000040 
0.000042 
0.000045 
0.000049 
0.000052 
0.000056 
0.000059 
0.000064 
0.000068 
0.000073 
0.000077 
0.000083 
0.000088 
0.000094 
0.000100 
0.000107 
0.000114 
0.000121 
0.000129 
0.000137 
0.000145 
0.000155 
0.000164 
0.000174 
0.000185 
0.000196 
0.000208 
0.000221 
0.000234 
0.000248 
0.000262 
0.000278 
0.000294 
0.000311 
0.000329 
0.000347 
0.000367 
0.000387 
0.000409 
0.000431 
0.000454 
0.000479 
0.000505 
0.000531 
0.000559 
0.000589 
0.000619 
0.000651 
0.000684 
0.000718 
0.000754 
0.000792 
0.000831 
0.000871 
0.000913 
0.000957 
0.001002 
0.001049 
0.001098 
0.001148 
0.001201 
0.001255 
0.001311 
0.001369 
0.001429 
0.001491 
0.001555 
0.001621 
0.001689 
0.001759 
0.001832 
0.001907 
0.001983 
0.002062 
0.002144 
0.002227 
0.002313 
0.002402 
0.002492 
0.002585 
0.002680 
0.002778 
0.002878 
0.002980 
0.003085 
0.003192 
0.003302 
0.003413 
0.003528 
0.003644 
0.003763 
0.003885 
0.004008 
0.004134 
0.004262 
0.004393 
0.004525 
0.004660 
0.004797 
0.004936 
0.005077 
0.005220 
0.005365 
0.005512 
0.005661 
0.005812 
0.005965 
0.006119 
0.006275 
0.006433 
0.006592 
0.006753 
0.006915 
0.007079 
0.007243 
0.007409 
0.007577 
0.007745 
0.007914 
0.008084 
0.008255 
0.008427 
0.008599 
0.008772 
0.008946 
0.009119 
0.009294 
0.009468 
0.009643 
0.009817 
0.009992 
0.010167 
0.010341 
0.010515 
0.010689 
0.010862 
0.011035 
0.011207 
0.011379 
0.011549 
0.011719 
0.011888 
0.012055 
0.012222 
0.012387 
0.012551 
0.012714 
0.012875 
0.013035 
0.013193 
0.013349 
0.013504 
0.013656 
0.013807 
0.013956 
0.014103 
0.014247 
0.014389 
0.014529 
0.014667 
0.014802 
0.014935 
0.015065 
0.015193 
0.015318 
0.015440 
0.015560 
0.015677 
0.015790 
0.015901 
0.016009 
0.016114 
0.016216 
0.016315 
0.016410 
0.016503 
0.016592 
0.016678 
0.016760 
0.016840 
0.016916 
0.016988 
0.017057 
0.017123 
0.017185 
0.017243 
0.017298 
0.017350 
0.017397 
0.017442 
0.017482 
0.017519 
0.017553 
0.017582 
0.017608 
0.017631 
0.017649 
0.017664 
0.017675 
0.017683 
0.017686 
0.000000 
0.000000 
0.000000 
0.000000 
0.000000 
0.000000 
0.000000 
0.000000 
0.000000 
0.000000 
0.000000 
0.000000 
0.000000 
0.000000 
0.000000 
0.000000 
0.000000 
0.000000 
0.000000 
0.000000 
0.000000 
0.000000 
0.000000 
0.000000 
0.000000 
0.000000 
0.000000 
0.000000 
0.000000 
0.000000 
0.000000 
0.000000 
0.000000 
0.000000 
0.000000 
0.000000 
0.000000 
0.000000 
0.000000 
0.000000 
0.000000 
0.000001 
0.000001 
0.000001 
0.000001 
0.000001 
0.000001 
0.000001 
0.000001 
0.000001 
0.000001 
0.000001 
0.000001 
0.000002 
0.000002 
0.000002 
0.000002 
0.000002 
0.000002 
0.000003 
0.000003 
0.000003 
0.000003 
0.000004 
0.000004 
0.000004 
0.000005 
0.000005 
0.000005 
0.000006 
0.000006 
0.000007 
0.000007 
0.000008 
0.000009 
0.000009 
0.000010 
0.000011 
0.000012 
0.000013 
0.000014 
0.000015 
0.000016 
0.000017 
0.000019 
0.000020 
0.000022 
0.000024 
0.000025 
0.000027 
0.000029 
0.000032 
0.000034 
0.000037 
0.000039 
0.000042 
0.000045 
0.000049 
0.000052 
0.000056 
0.000060 
0.000064 
0.000069 
0.000073 
0.000079 
0.000084 
0.000090 
0.000096 
0.000103 
0.000110 
0.000117 
0.000125 
0.000133 
0.000142 
0.000151 
0.000161 
0.000172 
0.000183 
0.000194 
0.000207 
0.000220 
0.000234 
0.000248 
0.000264 
0.000280 
0.000297 
0.000315 
0.000334 
0.000354 
0.000375 
0.000397 
0.000420 
0.000444 
0.000470 
0.000497 
0.000525 
0.000554 
0.000585 
0.000617 
0.000651 
0.000687 
0.000724 
0.000762 
0.000803 
0.000845 
0.000889 
0.000935 
0.000983 
0.001033 
0.001085 
0.001139 
0.001196 
0.001254 
0.001315 
0.001379 
0.001445 
0.001513 
0.001584 
0.001657 
0.001734 
0.001813 
0.001894 
0.001979 
0.002066 
0.002157 
0.002250 
0.002347 
0.002446 
0.002549 
0.002655 
0.002764 
0.002877 
0.002992 
0.003111 
0.003234 
0.003360 
0.003489 
0.003622 
0.003758 
0.003898 
0.004042 
0.004189 
0.004339 
0.004493 
0.004651 
0.004812 
0.004977 
0.005145 
0.005317 
0.005492 
0.005671 
0.005854 
0.006039 
0.006229 
0.006421 
0.006617 
0.006817 
0.007019 
0.007225 
0.007434 
0.007646 
0.007861 
0.008079 
0.008300 
0.008524 
0.008750 
0.008980 
0.009211 
0.009446 
0.009682 
0.009921 
0.010162 
0.010406 
0.010651 
0.010898 
0.011147 
0.011398 
0.011650 
0.011904 
0.012159 
0.012415 
0.012673 
0.012931 
0.013190 
0.013450 
0.013711 
0.013972 
0.014233 
0.014495 
0.014756 
0.015018 
0.015279 
0.015540 
0.015801 
0.016061 
0.016321 
0.016579 
0.016837 
0.017093 
0.017349 
0.017603 
0.017855 
0.018106 
0.018355 
0.018603 
0.018848 
0.019091 
0.019332 
0.019571 
0.019807 
0.020041 
0.020272 
0.020500 
0.020725 
0.020948 
0.021167 
0.021383 
0.021595 
0.021804 
0.022010 
0.022212 
0.022411 
0.022605 
0.022796 
0.022982 
0.023165 
0.023344 
0.023518 
0.023688 
0.023853 
0.024015 
0.024171 
0.024323 
0.024471 
0.024613 
0.024751 
0.024884 
0.025012 
0.025136 
0.025254 
0.025367 
0.025475 
0.025578 
0.025676 
0.025769 
0.025856 
0.025938 
0.026015 
0.026086 
0.026152 
0.026213 
0.026268 
0.026318 
0.026362 
0.026401 
0.026434 
0.026462 
0.026484 
0.026500 
0.026511 
0.026517 
0.000000 
0.000000 
0.000000 
0.000000 
0.000000 
0.000000 
0.000000 
0.000000 
0.000000 
0.000000 
0.000000 
0.000000 
0.000000 
0.000000 
0.000000 
0.000000 
0.000000 
0.000000 
0.000000 
0.000000 
0.000000 
0.000000 
0.000000 
0.000000 
0.000000 
0.000000 
0.000000 
0.000000 
0.000000 
0.000000 
0.000000 
0.000000 
0.000000 
0.000000 
0.000000 
0.000000 
0.000000 
0.000000 
0.000001 
0.000001 
0.000001 
0.000001 
0.000001 
0.000001 
0.000001 
0.000001 
0.000001 
0.000001 
0.000001 
0.000001 
0.000002 
0.000002 
0.000002 
0.000002 
0.000002 
0.000002 
0.000003 
0.000003 
0.000003 
0.000003 
0.000004 
0.000004 
0.000004 
0.000005 
0.000005 
0.000006 
0.000006 
0.000007 
0.000007 
0.000008 
0.000009 
0.000009 
0.000010 
0.000011 
0.000012 
0.000013 
0.000014 
0.000015 
0.000016 
0.000017 
0.000019 
0.000020 
0.000022 
0.000024 
0.000025 
0.000027 
0.000030 
0.000032 
0.000034 
0.000037 
0.000040 
0.000043 
0.000046 
0.000049 
0.000053 
0.000057 
0.000061 
0.000065 
0.000070 
0.000075 
0.000081 
0.000086 
0.000093 
0.000099 
0.000106 
0.000113 
0.000121 
0.000130 
0.000138 
0.000148 
0.000158 
0.000168 
0.000180 
0.000191 
0.000204 
0.000217 
0.000231 
0.000246 
0.000262 
0.000279 
0.000296 
0.000315 
0.000335 
0.000355 
0.000377 
0.000400 
0.000424 
0.000450 
0.000477 
0.000505 
0.000535 
0.000566 
0.000598 
0.000633 
0.000669 
0.000707 
0.000746 
0.000788 
0.000831 
0.000877 
0.000925 
0.000974 
0.001027 
0.001081 
0.001138 
0.001197 
0.001259 
0.001324 
0.001391 
0.001461 
0.001534 
0.001610 
0.001688 
0.001770 
0.001856 
0.001944 
0.002036 
0.002131 
0.002230 
0.002332 
0.002438 
0.002548 
0.002662 
0.002779 
0.002901 
0.003026 
0.003156 
0.003289 
0.003427 
0.003569 
0.003716 
0.003867 
0.004022 
0.004182 
0.004346 
0.004515 
0.004688 
0.004866 
0.005049 
0.005237 
0.005429 
0.005626 
0.005827 
0.006034 
0.006245 
0.006461 
0.006681 
0.006907 
0.007137 
0.007372 
0.007611 
0.007855 
0.008104 
0.008357 
0.008615 
0.008877 
0.009143 
0.009414 
0.009689 
0.009969 
0.010252 
0.010539 
0.010831 
0.011126 
0.011425 
0.011727 
0.012033 
0.012343 
0.012655 
0.012971 
0.013290 
0.013612 
0.013937 
0.014264 
0.014593 
0.014925 
0.015260 
0.015596 
0.015934 
0.016274 
0.016616 
0.016959 
0.017303 
0.017648 
0.017994 
0.018341 
0.018689 
0.019037 
0.019385 
0.019733 
0.020081 
0.020429 
0.020776 
0.021123 
0.021469 
0.021814 
0.022158 
0.022500 
0.022841 
0.023181 
0.023518 
0.023854 
0.024187 
0.024518 
0.024846 
0.025172 
0.025495 
0.025815 
0.026132 
0.026446 
0.026756 
0.027062 
0.027365 
0.027664 
0.027959 
0.028250 
0.028536 
0.028818 
0.029096 
0.029368 
0.029636 
0.029899 
0.030157 
0.030410 
0.030658 
0.030900 
0.031136 
0.031367 
0.031592 
0.031812 
0.032025 
0.032233 
0.032434 
0.032629 
0.032818 
0.033001 
0.033177 
0.033347 
0.033510 
0.033667 
0.033817 
0.033960 
0.034096 
0.034226 
0.034348 
0.034464 
0.034573 
0.034674 
0.034769 
0.034856 
0.034936 
0.035009 
0.035075 
0.035134 
0.035185 
0.035229 
0.035266 
0.035295 
0.035317 
0.035332 
0.035339 
0.000000 
0.000000 
0.000000 
0.000000 
0.000000 
0.000000 
0.000000 
0.000000 
0.000000 
0.000000 
0.000000 
0.000000 
0.000000 
0.000000 
0.000000 
0.000000 
0.000000 
0.000000 
0.000000 
0.000000 
0.000000 
0.000000 
0.000000 
0.000000 
0.000000 
0.000000 
0.000000 
0.000000 
0.000000 
0.000000 
0.000000 
0.000000 
0.000000 
0.000000 
0.000000 
0.000001 
0.000001 
0.000001 
0.000001 
0.000001 
0.000001 
0.000001 
0.000001 
0.000001 
0.000001 
0.000001 
0.000001 
0.000002 
0.000002 
0.000002 
0.000002 
0.000002 
0.000002 
0.000003 
0.000003 
0.000003 
0.000003 
0.000004 
0.000004 
0.000004 
0.000005 
0.000005 
0.000006 
0.000006 
0.000007 
0.000007 
0.000008 
0.000008 
0.000009 
0.000010 
0.000011 
0.000012 
0.000013 
0.000014 
0.000015 
0.000016 
0.000017 
0.000019 
0.000020 
0.000022 
0.000024 
0.000026 
0.000028 
0.000030 
0.000032 
0.000035 
0.000037 
0.000040 
0.000043 
0.000047 
0.000050 
0.000054 
0.000058 
0.000063 
0.000067 
0.000072 
0.000077 
0.000083 
0.000089 
0.000095 
0.000102 
0.000110 
0.000117 
0.000126 
0.000134 
0.000144 
0.000154 
0.000164 
0.000176 
0.000187 
0.000200 
0.000213 
0.000228 
0.000243 
0.000259 
0.000276 
0.000293 
0.000312 
0.000332 
0.000353 
0.000376 
0.000399 
0.000424 
0.000450 
0.000478 
0.000507 
0.000538 
0.000570 
0.000604 
0.000640 
0.000677 
0.000717 
0.000758 
0.000802 
0.000847 
0.000895 
0.000945 
0.000998 
0.001053 
0.001110 
0.001171 
0.001234 
0.001300 
0.001368 
0.001440 
0.001515 
0.001593 
0.001675 
0.001760 
0.001848 
0.001941 
0.002036 
0.002136 
0.002240 
0.002347 
0.002459 
0.002575 
0.002695 
0.002820 
0.002949 
0.003083 
0.003221 
0.003365 
0.003513 
0.003666 
0.003824 
0.003987 
0.004156 
0.004330 
0.004509 
0.004693 
0.004884 
0.005079 
0.005281 
0.005487 
0.005700 
0.005919 
0.006143 
0.006373 
0.006609 
0.006851 
0.007098 
0.007352 
0.007611 
0.007877 
0.008148 
0.008426 
0.008709 
0.008998 
0.009293 
0.009594 
0.009900 
0.010212 
0.010530 
0.010854 
0.011183 
0.011517 
0.011857 
0.012202 
0.012552 
0.012907 
0.013268 
0.013633 
0.014003 
0.014377 
0.014756 
0.015139 
0.015527 
0.015918 
0.016314 
0.016713 
0.017116 
0.017522 
0.017931 
0.018343 
0.018758 
0.019176 
0.019597 
0.020019 
0.020444 
0.020870 
0.021299 
0.021729 
0.022160 
0.022592 
0.023025 
0.023458 
0.023892 
0.024327 
0.024761 
0.025195 
0.025629 
0.026062 
0.026494 
0.026925 
0.027355 
0.027783 
0.028210 
0.028635 
0.029057 
0.029477 
0.029895 
0.030310 
0.030722 
0.031130 
0.031536 
0.031937 
0.032335 
0.032729 
0.033119 
0.033505 
0.033886 
0.034262 
0.034634 
0.035000 
0.035361 
0.035717 
0.036068 
0.036412 
0.036751 
0.037083 
0.037410 
0.037730 
0.038044 
0.038351 
0.038651 
0.038945 
0.039231 
0.039511 
0.039783 
0.040048 
0.040305 
0.040555 
0.040797 
0.041031 
0.041258 
0.041476 
0.041687 
0.041889 
0.042083 
0.042269 
0.042446 
0.042615 
0.042776 
0.042928 
0.043071 
0.043206 
0.043331 
0.043449 
0.043557 
0.043656 
0.043747 
0.043828 
0.043901 
0.043964 
0.044019 
0.044064 
0.044100 
0.044128 
0.044146 
0.044155 
0.000000 
0.000000 
0.000000 
0.000000 
0.000000 
0.000000 
0.000000 
0.000000 
0.000000 
0.000000 
0.000000 
0.000000 
0.000000 
0.000000 
0.000000 
0.000000 
0.000000 
0.000000 
0.000000 
0.000000 
0.000000 
0.000000 
0.000000 
0.000000 
0.000000 
0.000000 
0.000000 
0.000000 
0.000000 
0.000000 
0.000000 
0.000000 
0.000000 
0.000001 
0.000001 
0.000001 
0.000001 
0.000001 
0.000001 
0.000001 
0.000001 
0.000001 
0.000001 
0.000001 
0.000001 
0.000002 
0.000002 
0.000002 
0.000002 
0.000002 
0.000002 
0.000003 
0.000003 
0.000003 
0.000003 
0.000004 
0.000004 
0.000004 
0.000005 
0.000005 
0.000006 
0.000006 
0.000007 
0.000007 
0.000008 
0.000009 
0.000010 
0.000010 
0.000011 
0.000012 
0.000013 
0.000014 
0.000016 
0.000017 
0.000018 
0.000020 
0.000021 
0.000023 
0.000025 
0.000027 
0.000029 
0.000031 
0.000034 
0.000037 
0.000039 
0.000042 
0.000046 
0.000049 
0.000053 
0.000057 
0.000061 
0.000066 
0.000071 
0.000076 
0.000082 
0.000088 
0.000095 
0.000101 
0.000109 
0.000117 
0.000125 
0.000134 
0.000143 
0.000153 
0.000164 
0.000176 
0.000188 
0.000201 
0.000214 
0.000229 
0.000244 
0.000261 
0.000278 
0.000296 
0.000316 
0.000336 
0.000358 
0.000381 
0.000406 
0.000431 
0.000458 
0.000487 
0.000517 
0.000549 
0.000583 
0.000619 
0.000656 
0.000695 
0.000737 
0.000780 
0.000826 
0.000874 
0.000924 
0.000977 
0.001033 
0.001091 
0.001152 
0.001216 
0.001283 
0.001354 
0.001427 
0.001504 
0.001584 
0.001667 
0.001755 
0.001846 
0.001941 
0.002040 
0.002144 
0.002251 
0.002363 
0.002480 
0.002601 
0.002727 
0.002857 
0.002993 
0.003134 
0.003280 
0.003431 
0.003588 
0.003751 
0.003919 
0.004093 
0.004272 
0.004458 
0.004650 
0.004848 
0.005052 
0.005263 
0.005480 
0.005704 
0.005934 
0.006171 
0.006415 
0.006666 
0.006923 
0.007188 
0.007459 
0.007737 
0.008023 
0.008315 
0.008615 
0.008922 
0.009235 
0.009556 
0.009884 
0.010219 
0.010561 
0.010911 
0.011267 
0.011630 
0.012000 
0.012376 
0.012760 
0.013150 
0.013547 
0.013950 
0.014359 
0.014775 
0.015197 
0.015625 
0.016059 
0.016499 
0.016944 
0.017394 
0.017850 
0.018311 
0.018777 
0.019248 
0.019723 
0.020203 
0.020687 
0.021175 
0.021666 
0.022161 
0.022660 
0.023161 
0.023666 
0.024173 
0.024682 
0.025194 
0.025707 
0.026223 
0.026739 
0.027257 
0.027776 
0.028295 
0.028815 
0.029335 
0.029855 
0.030374 
0.030893 
0.031411 
0.031928 
0.032443 
0.032957 
0.033469 
0.033979 
0.034486 
0.034991 
0.035493 
0.035992 
0.036487 
0.036979 
0.037467 
0.037950 
0.038430 
0.038904 
0.039374 
0.039839 
0.040299 
0.040753 
0.041202 
0.041645 
0.042081 
0.042512 
0.042936 
0.043353 
0.043763 
0.044166 
0.044562 
0.044951 
0.045332 
0.045705 
0.046071 
0.046428 
0.046778 
0.047118 
0.047451 
0.047774 
0.048089 
0.048395 
0.048692 
0.048980 
0.049259 
0.049528 
0.049788 
0.050038 
0.050278 
0.050509 
0.050729 
0.050940 
0.051141 
0.051332 
0.051512 
0.051682 
0.051842 
0.051991 
0.052131 
0.052259 
0.052377 
0.052484 
0.052581 
0.052667 
0.052743 
0.052807 
0.052861 
0.052905 
0.052937 
0.052959 
0.052969 
0.000000 
0.000000 
0.000000 
0.000000 
0.000000 
0.000000 
0.000000 
0.000000 
0.000000 
0.000000 
0.000000 
0.000000 
0.000000 
0.000000 
0.000000 
0.000000 
0.000000 
0.000000 
0.000000 
0.000000 
0.000000 
0.000000 
0.000000 
0.000000 
0.000000 
0.000000 
0.000000 
0.000000 
0.000000 
0.000000 
0.000000 
0.000001 
0.000001 
0.000001 
0.000001 
0.000001 
0.000001 
0.000001 
0.000001 
0.000001 
0.000001 
0.000001 
0.000001 
0.000002 
0.000002 
0.000002 
0.000002 
0.000002 
0.000002 
0.000003 
0.000003 
0.000003 
0.000003 
0.000004 
0.000004 
0.000005 
0.000005 
0.000005 
0.000006 
0.000006 
0.000007 
0.000008 
0.000008 
0.000009 
0.000010 
0.000010 
0.000011 
0.000012 
0.000013 
0.000015 
0.000016 
0.000017 
0.000019 
0.000020 
0.000022 
0.000023 
0.000025 
0.000027 
0.000030 
0.000032 
0.000035 
0.000037 
0.000040 
0.000044 
0.000047 
0.000051 
0.000055 
0.000059 
0.000063 
0.000068 
0.000073 
0.000079 
0.000085 
0.000091 
0.000098 
0.000105 
0.000113 
0.000121 
0.000130 
0.000139 
0.000149 
0.000159 
0.000171 
0.000183 
0.000195 
0.000209 
0.000224 
0.000239 
0.000255 
0.000272 
0.000291 
0.000310 
0.000331 
0.000353 
0.000376 
0.000400 
0.000426 
0.000454 
0.000483 
0.000513 
0.000545 
0.000580 
0.000616 
0.000653 
0.000693 
0.000736 
0.000780 
0.000827 
0.000876 
0.000928 
0.000982 
0.001039 
0.001099 
0.001162 
0.001228 
0.001297 
0.001370 
0.001445 
0.001525 
0.001608 
0.001695 
0.001786 
0.001881 
0.001981 
0.002084 
0.002192 
0.002305 
0.002423 
0.002545 
0.002672 
0.002805 
0.002943 
0.003086 
0.003235 
0.003390 
0.003551 
0.003718 
0.003890 
0.004069 
0.004255 
0.004447 
0.004646 
0.004851 
0.005064 
0.005283 
0.005510 
0.005744 
0.005985 
0.006234 
0.006490 
0.006754 
0.007026 
0.007306 
0.007593 
0.007889 
0.008192 
0.008504 
0.008824 
0.009152 
0.009488 
0.009832 
0.010185 
0.010546 
0.010915 
0.011293 
0.011679 
0.012073 
0.012475 
0.012885 
0.013304 
0.013730 
0.014165 
0.014607 
0.015057 
0.015515 
0.015980 
0.016453 
0.016934 
0.017421 
0.017916 
0.018417 
0.018926 
0.019440 
0.019962 
0.020489 
0.021023 
0.021562 
0.022108 
0.022658 
0.023214 
0.023774 
0.024340 
0.024910 
0.025484 
0.026062 
0.026644 
0.027229 
0.027818 
0.028409 
0.029003 
0.029600 
0.030198 
0.030799 
0.031401 
0.032004 
0.032608 
0.033212 
0.033817 
0.034423 
0.035027 
0.035632 
0.036235 
0.036837 
0.037438 
0.038037 
0.038634 
0.039229 
0.039821 
0.040410 
0.040996 
0.041578 
0.042157 
0.042731 
0.043302 
0.043867 
0.044428 
0.044984 
0.045534 
0.046078 
0.046617 
0.047149 
0.047675 
0.048195 
0.048707 
0.049213 
0.049711 
0.050201 
0.050684 
0.051158 
0.051625 
0.052083 
0.052532 
0.052972 
0.053404 
0.053826 
0.054239 
0.054643 
0.055036 
0.055420 
0.055794 
0.056158 
0.056511 
0.056854 
0.057186 
0.057508 
0.057818 
0.058118 
0.058406 
0.058684 
0.058950 
0.059205 
0.059448 
0.059679 
0.059899 
0.060107 
0.060303 
0.060488 
0.060660 
0.060820 
0.060968 
0.061104 
0.061228 
0.061340 
0.061439 
0.061526 
0.061601 
0.061663 
0.061713 
0.061750 
0.061775 
0.061787 
0.000000 
0.000000 
0.000000 
0.000000 
0.000000 
0.000000 
0.000000 
0.000000 
0.000000 
0.000000 
0.000000 
0.000000 
0.000000 
0.000000 
0.000000 
0.000000 
0.000000 
0.000000 
0.000000 
0.000000 
0.000000 
0.000000 
0.000000 
0.000000 
0.000000 
0.000000 
0.000000 
0.000000 
0.000000 
0.000000 
0.000001 
0.000001 
0.000001 
0.000001 
0.000001 
0.000001 
0.000001 
0.000001 
0.000001 
0.000001 
0.000001 
0.000002 
0.000002 
0.000002 
0.000002 
0.000002 
0.000002 
0.000003 
0.000003 
0.000003 
0.000003 
0.000004 
0.000004 
0.000004 
0.000005 
0.000005 
0.000006 
0.000006 
0.000007 
0.000007 
0.000008 
0.000009 
0.000010 
0.000010 
0.000011 
0.000012 
0.000013 
0.000014 
0.000016 
0.000017 
0.000018 
0.000020 
0.000022 
0.000023 
0.000025 
0.000027 
0.000030 
0.000032 
0.000035 
0.000038 
0.000041 
0.000044 
0.000047 
0.000051 
0.000055 
0.000059 
0.000064 
0.000069 
0.000074 
0.000080 
0.000086 
0.000092 
0.000099 
0.000106 
0.000114 
0.000123 
0.000132 
0.000141 
0.000152 
0.000162 
0.000174 
0.000187 
0.000200 
0.000214 
0.000229 
0.000245 
0.000261 
0.000279 
0.000298 
0.000319 
0.000340 
0.000363 
0.000387 
0.000412 
0.000439 
0.000468 
0.000498 
0.000530 
0.000564 
0.000600 
0.000637 
0.000677 
0.000719 
0.000764 
0.000810 
0.000859 
0.000911 
0.000966 
0.001023 
0.001083 
0.001147 
0.001213 
0.001283 
0.001357 
0.001433 
0.001514 
0.001599 
0.001687 
0.001780 
0.001877 
0.001978 
0.002084 
0.002195 
0.002310 
0.002431 
0.002557 
0.002688 
0.002825 
0.002967 
0.003115 
0.003269 
0.003430 
0.003596 
0.003770 
0.003949 
0.004136 
0.004330 
0.004530 
0.004738 
0.004954 
0.005176 
0.005407 
0.005645 
0.005892 
0.006146 
0.006409 
0.006680 
0.006960 
0.007248 
0.007545 
0.007851 
0.008165 
0.008489 
0.008822 
0.009164 
0.009515 
0.009875 
0.010245 
0.010624 
0.011012 
0.011410 
0.011817 
0.012234 
0.012660 
0.013096 
0.013541 
0.013995 
0.014459 
0.014932 
0.015414 
0.015905 
0.016406 
0.016915 
0.017433 
0.017960 
0.018495 
0.019039 
0.019592 
0.020152 
0.020720 
0.021296 
0.021880 
0.022471 
0.023070 
0.023675 
0.024287 
0.024905 
0.025530 
0.026161 
0.026798 
0.027440 
0.028088 
0.028740 
0.029397 
0.030058 
0.030724 
0.031393 
0.032066 
0.032742 
0.033421 
0.034102 
0.034785 
0.035471 
0.036158 
0.036846 
0.037535 
0.038224 
0.038914 
0.039603 
0.040292 
0.040980 
0.041668 
0.042353 
0.043037 
0.043719 
0.044398 
0.045074 
0.045747 
0.046417 
0.047083 
0.047744 
0.048402 
0.049054 
0.049702 
0.050344 
0.050980 
0.051611 
0.052235 
0.052852 
0.053463 
0.054067 
0.054663 
0.055251 
0.055832 
0.056405 
0.056969 
0.057524 
0.058070 
0.058607 
0.059135 
0.059653 
0.060162 
0.060660 
0.061148 
0.061626 
0.062093 
0.062549 
0.062994 
0.063427 
0.063850 
0.064261 
0.064660 
0.065047 
0.065422 
0.065785 
0.066136 
0.066474 
0.066800 
0.067113 
0.067414 
0.067701 
0.067975 
0.068237 
0.068485 
0.068719 
0.068941 
0.069149 
0.069343 
0.069524 
0.069691 
0.069844 
0.069984 
0.070110 
0.070222 
0.070320 
0.070404 
0.070474 
0.070530 
0.070572 
0.070600 
0.070614 
0.000000 
0.000000 
0.000000 
0.000000 
0.000000 
0.000000 
0.000000 
0.000000 
0.000000 
0.000000 
0.000000 
0.000000 
0.000000 
0.000000 
0.000000 
0.000000 
0.000000 
0.000000 
0.000000 
0.000000 
0.000000 
0.000000 
0.000000 
0.000000 
0.000000 
0.000000 