# vtk DataFile Version 3.0
results.vtk
ASCII
DATASET RECTILINEAR_GRID
DIMENSIONS 301 301 1
X_COORDINATES 301 double
0.000000 0.003333 0.006667 0.010000 0.013333 0.016667 0.020000 0.023333 0.026667 0.030000 0.033333 0.036667 0.040000 0.043333 0.046667 0.050000 0.053333 0.056667 0.060000 0.063333 0.066667 0.070000 0.073333 0.076667 0.080000 0.083333 0.086667 0.090000 0.093333 0.096667 0.100000 0.103333 0.106667 0.110000 0.113333 0.116667 0.120000 0.123333 0.126667 0.130000 0.133333 0.136667 0.140000 0.143333 0.146667 0.150000 0.153333 0.156667 0.160000 0.163333 0.166667 0.170000 0.173333 0.176667 0.180000 0.183333 0.186667 0.190000 0.193333 0.196667 0.200000 0.203333 0.206667 0.210000 0.213333 0.216667 0.220000 0.223333 0.226667 0.230000 0.233333 0.236667 0.240000 0.243333 0.246667 0.250000 0.253333 0.256667 0.260000 0.263333 0.266667 0.270000 0.273333 0.276667 0.280000 0.283333 0.286667 0.290000 0.293333 0.296667 0.300000 0.303333 0.306667 0.310000 0.313333 0.316667 0.320000 0.323333 0.326667 0.330000 0.333333 0.336667 0.340000 0.343333 0.346667 0.350000 0.353333 0.356667 0.360000 0.363333 0.366667 0.370000 0.373333 0.376667 0.380000 0.383333 0.386667 0.390000 0.393333 0.396667 0.400000 0.403333 0.406667 0.410000 0.413333 0.416667 0.420000 0.423333 0.426667 0.430000 0.433333 0.436667 0.440000 0.443333 0.446667 0.450000 0.453333 0.456667 0.460000 0.463333 0.466667 0.470000 0.473333 0.476667 0.480000 0.483333 0.486667 0.490000 0.493333 0.496667 0.500000 0.503333 0.506667 0.510000 0.513333 0.516667 0.520000 0.523333 0.526667 0.530000 0.533333 0.536667 0.540000 0.543333 0.546667 0.550000 0.553333 0.556667 0.560000 0.563333 0.566667 0.570000 0.573333 0.576667 0.580000 0.583333 0.586667 0.590000 0.593333 0.596667 0.600000 0.603333 0.606667 0.610000 0.613333 0.616667 0.620000 0.623333 0.626667 0.630000 0.633333 0.636667 0.640000 0.643333 0.646667 0.650000 0.653333 0.656667 0.660000 0.663333 0.666667 0.670000 0.673333 0.676667 0.680000 0.683333 0.686667 0.690000 0.693333 0.696667 0.700000 0.703333 0.706667 0.710000 0.713333 0.716667 0.720000 0.723333 0.726667 0.730000 0.733333 0.736667 0.740000 0.743333 0.746667 0.750000 0.753333 0.756667 0.760000 0.763333 0.766667 0.770000 0.773333 0.776667 0.780000 0.783333 0.786667 0.790000 0.793333 0.796667 0.800000 0.803333 0.806667 0.810000 0.813333 0.816667 0.820000 0.823333 0.826667 0.830000 0.833333 0.836667 0.840000 0.843333 0.846667 0.850000 0.853333 0.856667 0.860000 0.863333 0.866667 0.870000 0.873333 0.876667 0.880000 0.883333 0.886667 0.890000 0.893333 0.896667 0.900000 0.903333 0.906667 0.910000 0.913333 0.916667 0.920000 0.923333 0.926667 0.930000 0.933333 0.936667 0.940000 0.943333 0.946667 0.950000 0.953333 0.956667 0.960000 0.963333 0.966667 0.970000 0.973333 0.976667 0.980000 0.983333 0.986667 0.990000 0.993333 0.996667 1.000000 
Y_COORDINATES 301 double
0.000000 0.003333 0.006667 0.010000 0.013333 0.016667 0.020000 0.023333 0.026667 0.030000 0.033333 0.036667 0.040000 0.043333 0.046667 0.050000 0.053333 0.056667 0.060000 0.063333 0.066667 0.070000 0.073333 0.076667 0.080000 0.083333 0.086667 0.090000 0.093333 0.096667 0.100000 0.103333 0.106667 0.110000 0.113333 0.116667 0.120000 0.123333 0.126667 0.130000 0.133333 0.136667 0.140000 0.143333 0.146667 0.150000 0.153333 0.156667 0.160000 0.163333 0.166667 0.170000 0.173333 0.176667 0.180000 0.183333 0.186667 0.190000 0.193333 0.196667 0.200000 0.203333 0.206667 0.210000 0.213333 0.216667 0.220000 0.223333 0.226667 0.230000 0.233333 0.236667 0.240000 0.243333 0.246667 0.250000 0.253333 0.256667 0.260000 0.263333 0.266667 0.270000 0.273333 0.276667 0.280000 0.283333 0.286667 0.290000 0.293333 0.296667 0.300000 0.303333 0.306667 0.310000 0.313333 0.316667 0.320000 0.323333 0.326667 0.330000 0.333333 0.336667 0.340000 0.343333 0.346667 0.350000 0.353333 0.356667 0.360000 0.363333 0.366667 0.370000 0.373333 0.376667 0.380000 0.383333 0.386667 0.390000 0.393333 0.396667 0.400000 0.403333 0.406667 0.410000 0.413333 0.416667 0.420000 0.423333 0.426667 0.430000 0.433333 0.436667 0.440000 0.443333 0.446667 0.450000 0.453333 0.456667 0.460000 0.463333 0.466667 0.470000 0.473333 0.476667 0.480000 0.483333 0.486667 0.490000 0.493333 0.496667 0.500000 0.503333 0.506667 0.510000 0.513333 0.516667 0.520000 0.523333 0.526667 0.530000 0.533333 0.536667 0.540000 0.543333 0.546667 0.550000 0.553333 0.556667 0.560000 0.563333 0.566667 0.570000 0.573333 0.576667 0.580000 0.583333 0.586667 0.590000 0.593333 0.596667 0.600000 0.603333 0.606667 0.610000 0.613333 0.616667 0.620000 0.623333 0.626667 0.630000 0.633333 0.636667 0.640000 0.643333 0.646667 0.650000 0.653333 0.656667 0.660000 0.663333 0.666667 0.670000 0.673333 0.676667 0.680000 0.683333 0.686667 0.690000 0.693333 0.696667 0.700000 0.703333 0.706667 0.710000 0.713333 0.716667 0.720000 0.723333 0.726667 0.730000 0.733333 0.736667 0.740000 0.743333 0.746667 0.750000 0.753333 0.756667 0.760000 0.763333 0.766667 0.770000 0.773333 0.776667 0.780000 0.783333 0.786667 0.790000 0.793333 0.796667 0.800000 0.803333 0.806667 0.810000 0.813333 0.816667 0.820000 0.823333 0.826667 0.830000 0.833333 0.836667 0.840000 0.843333 0.846667 0.850000 0.853333 0.856667 0.860000 0.863333 0.866667 0.870000 0.873333 0.876667 0.880000 0.883333 0.886667 0.890000 0.893333 0.896667 0.900000 0.903333 0.906667 0.910000 0.913333 0.916667 0.920000 0.923333 0.926667 0.930000 0.933333 0.936667 0.940000 0.943333 0.946667 0.950000 0.953333 0.956667 0.960000 0.963333 0.966667 0.970000 0.973333 0.976667 0.980000 0.983333 0.986667 0.990000 0.993333 0.996667 1.000000 
Z_COORDINATES 1 double
0
POINT_DATA 90601 
FIELD FieldData 1 
Concentração 1 90601 double 
0.000000 
0.000000 
0.000000 
0.000000 
0.000000 
0.000000 
0.000000 
0.000000 
0.000000 
0.000000 
0.000000 
0.000000 
0.000000 
0.000000 
0.000000 
0.000000 
0.000000 
0.000000 
0.000000 
0.000000 
0.000000 
0.000000 
0.000000 
0.000000 
0.000000 
0.000000 
0.000000 
0.000000 
0.000000 
0.000000 
0.000000 
0.000000 
0.000000 
0.000000 
0.000000 
0.000000 
0.000000 
0.000000 
0.000000 
0.000000 
0.000000 
0.000000 
0.000000 
0.000000 
0.000000 
0.000000 
0.000000 
0.000000 
0.000000 
0.000000 
0.000000 
0.000001 
0.000001 
0.000001 
0.000001 
0.000001 
0.000001 
0.000001 
0.000001 
0.000001 
0.000001 
0.000001 
0.000001 
0.000001 
0.000002 
0.000002 
0.000002 
0.000002 
0.000002 
0.000002 
0.000002 
0.000003 
0.000003 
0.000003 
0.000003 
0.000004 
0.000004 
0.000004 
0.000005 
0.000005 
0.000005 
0.000006 
0.000006 
0.000007 
0.000007 
0.000008 
0.000009 
0.000009 
0.000010 
0.000011 
0.000011 
0.000012 
0.000013 
0.000014 
0.000015 
0.000016 
0.000018 
0.000019 
0.000020 
0.000022 
0.000023 
0.000025 
0.000027 
0.000029 
0.000031 
0.000033 
0.000035 
0.000037 
0.000040 
0.000043 
0.000045 
0.000048 
0.000052 
0.000055 
0.000059 
0.000062 
0.000066 
0.000071 
0.000075 
0.000080 
0.000085 
0.000090 
0.000096 
0.000102 
0.000108 
0.000115 
0.000121 
0.000129 
0.000136 
0.000144 
0.000153 
0.000162 
0.000171 
0.000181 
0.000191 
0.000202 
0.000213 
0.000225 
0.000237 
0.000250 
0.000263 
0.000277 
0.000292 
0.000307 
0.000323 
0.000340 
0.000358 
0.000376 
0.000395 
0.000414 
0.000435 
0.000456 
0.000478 
0.000502 
0.000525 
0.000550 
0.000576 
0.000603 
0.000630 
0.000659 
0.000689 
0.000720 
0.000751 
0.000784 
0.000818 
0.000853 
0.000889 
0.000927 
0.000965 
0.001005 
0.001046 
0.001088 
0.001131 
0.001175 
0.001221 
0.001268 
0.001316 
0.001366 
0.001416 
0.001468 
0.001522 
0.001576 
0.001632 
0.001689 
0.001748 
0.001807 
0.001868 
0.001931 
0.001994 
0.002059 
0.002125 
0.002192 
0.002261 
0.002331 
0.002402 
0.002474 
0.002547 
0.002621 
0.002697 
0.002774 
0.002851 
0.002930 
0.003010 
0.003091 
0.003173 
0.003256 
0.003340 
0.003424 
0.003510 
0.003596 
0.003683 
0.003771 
0.003859 
0.003949 
0.004039 
0.004129 
0.004220 
0.004312 
0.004404 
0.004496 
0.004589 
0.004682 
0.004775 
0.004869 
0.004963 
0.005057 
0.005151 
0.005246 
0.005340 
0.005434 
0.005528 
0.005623 
0.005717 
0.005810 
0.005904 
0.005997 
0.006090 
0.006182 
0.006274 
0.006366 
0.006457 
0.006547 
0.006637 
0.006726 
0.006814 
0.006902 
0.006989 
0.007075 
0.007160 
0.007244 
0.007328 
0.007410 
0.007491 
0.007571 
0.007650 
0.007728 
0.007805 
0.007881 
0.007955 
0.008028 
0.008100 
0.008170 
0.008239 
0.008307 
0.008373 
0.008438 
0.008501 
0.008563 
0.008623 
0.008682 
0.008739 
0.008794 
0.008848 
0.008900 
0.008951 
0.008999 
0.009047 
0.009092 
0.009135 
0.009177 
0.009217 
0.009255 
0.009292 
0.009326 
0.009359 
0.009390 
0.009419 
0.009446 
0.009471 
0.009494 
0.009516 
0.009535 
0.009552 
0.009568 
0.009582 
0.009593 
0.009603 
0.009611 
0.009617 
0.009621 
0.009623 
0.000000 
0.000000 
0.000000 
0.000000 
0.000000 
0.000000 
0.000000 
0.000000 
0.000000 
0.000000 
0.000000 
0.000000 
0.000000 
0.000000 
0.000000 
0.000000 
0.000000 
0.000000 
0.000000 
0.000000 
0.000000 
0.000000 
0.000000 
0.000000 
0.000000 
0.000000 
0.000000 
0.000000 
0.000000 
0.000000 
0.000000 
0.000000 
0.000000 
0.000000 
0.000000 
0.000000 
0.000000 
0.000000 
0.000000 
0.000000 
0.000000 
0.000000 
0.000000 
0.000000 
0.000001 
0.000001 
0.000001 
0.000001 
0.000001 
0.000001 
0.000001 
0.000001 
0.000001 
0.000001 
0.000001 
0.000001 
0.000002 
0.000002 
0.000002 
0.000002 
0.000002 
0.000002 
0.000003 
0.000003 
0.000003 
0.000003 
0.000004 
0.000004 
0.000004 
0.000005 
0.000005 
0.000005 
0.000006 
0.000006 
0.000007 
0.000007 
0.000008 
0.000009 
0.000009 
0.000010 
0.000011 
0.000012 
0.000013 
0.000014 
0.000015 
0.000016 
0.000017 
0.000019 
0.000020 
0.000021 
0.000023 
0.000025 
0.000027 
0.000029 
0.000031 
0.000033 
0.000035 
0.000038 
0.000041 
0.000044 
0.000047 
0.000050 
0.000054 
0.000057 
0.000061 
0.000066 
0.000070 
0.000075 
0.000080 
0.000086 
0.000091 
0.000097 
0.000104 
0.000111 
0.000118 
0.000125 
0.000134 
0.000142 
0.000151 
0.000161 
0.000171 
0.000181 
0.000193 
0.000204 
0.000217 
0.000230 
0.000244 
0.000258 
0.000274 
0.000290 
0.000307 
0.000325 
0.000343 
0.000363 
0.000383 
0.000405 
0.000427 
0.000451 
0.000476 
0.000502 
0.000529 
0.000557 
0.000586 
0.000617 
0.000650 
0.000683 
0.000718 
0.000755 
0.000793 
0.000832 
0.000873 
0.000916 
0.000961 
0.001007 
0.001055 
0.001105 
0.001157 
0.001210 
0.001266 
0.001323 
0.001383 
0.001444 
0.001508 
0.001574 
0.001642 
0.001712 
0.001785 
0.001860 
0.001937 
0.002016 
0.002098 
0.002183 
0.002269 
0.002358 
0.002450 
0.002544 
0.002641 
0.002740 
0.002841 
0.002946 
0.003053 
0.003162 
0.003274 
0.003388 
0.003505 
0.003625 
0.003747 
0.003872 
0.003999 
0.004129 
0.004261 
0.004396 
0.004533 
0.004673 
0.004815 
0.004959 
0.005106 
0.005255 
0.005406 
0.005560 
0.005715 
0.005873 
0.006033 
0.006195 
0.006359 
0.006524 
0.006692 
0.006861 
0.007032 
0.007205 
0.007379 
0.007555 
0.007732 
0.007910 
0.008090 
0.008271 
0.008453 
0.008635 
0.008819 
0.009004 
0.009190 
0.009376 
0.009563 
0.009750 
0.009938 
0.010125 
0.010314 
0.010502 
0.010690 
0.010879 
0.011067 
0.011255 
0.011442 
0.011629 
0.011816 
0.012002 
0.012187 
0.012372 
0.012555 
0.012738 
0.012920 
0.013100 
0.013279 
0.013457 
0.013633 
0.013808 
0.013982 
0.014153 
0.014323 
0.014491 
0.014658 
0.014822 
0.014984 
0.015144 
0.015302 
0.015457 
0.015610 
0.015761 
0.015909 
0.016055 
0.016198 
0.016338 
0.016476 
0.016611 
0.016743 
0.016872 
0.016998 
0.017121 
0.017241 
0.017358 
0.017472 
0.017582 
0.017689 
0.017793 
0.017894 
0.017991 
0.018085 
0.018175 
0.018262 
0.018345 
0.018425 
0.018501 
0.018573 
0.018642 
0.018707 
0.018768 
0.018826 
0.018880 
0.018930 
0.018977 
0.019019 
0.019058 
0.019093 
0.019124 
0.019151 
0.019174 
0.019194 
0.019209 
0.019221 
0.019229 
0.019233 
0.000000 
0.000000 
0.000000 
0.000000 
0.000000 
0.000000 
0.000000 
0.000000 
0.000000 
0.000000 
0.000000 
0.000000 
0.000000 
0.000000 
0.000000 
0.000000 
0.000000 
0.000000 
0.000000 
0.000000 
0.000000 
0.000000 
0.000000 
0.000000 
0.000000 
0.000000 
0.000000 
0.000000 
0.000000 
0.000000 
0.000000 
0.000000 
0.000000 
0.000000 
0.000000 
0.000000 
0.000000 
0.000000 
0.000000 
0.000001 
0.000001 
0.000001 
0.000001 
0.000001 
0.000001 
0.000001 
0.000001 
0.000001 
0.000001 
0.000001 
0.000001 
0.000002 
0.000002 
0.000002 
0.000002 
0.000002 
0.000002 
0.000003 
0.000003 
0.000003 
0.000003 
0.000004 
0.000004 
0.000004 
0.000005 
0.000005 
0.000005 
0.000006 
0.000006 
0.000007 
0.000008 
0.000008 
0.000009 
0.000010 
0.000010 
0.000011 
0.000012 
0.000013 
0.000014 
0.000015 
0.000017 
0.000018 
0.000019 
0.000021 
0.000022 
0.000024 
0.000026 
0.000028 
0.000030 
0.000032 
0.000035 
0.000038 
0.000040 
0.000043 
0.000047 
0.000050 
0.000054 
0.000058 
0.000062 
0.000066 
0.000071 
0.000076 
0.000081 
0.000087 
0.000093 
0.000099 
0.000106 
0.000113 
0.000121 
0.000129 
0.000138 
0.000147 
0.000157 
0.000167 
0.000178 
0.000190 
0.000202 
0.000215 
0.000228 
0.000243 
0.000258 
0.000274 
0.000291 
0.000309 
0.000328 
0.000348 
0.000369 
0.000391 
0.000414 
0.000438 
0.000464 
0.000490 
0.000519 
0.000548 
0.000579 
0.000612 
0.000646 
0.000681 
0.000719 
0.000758 
0.000799 
0.000841 
0.000886 
0.000932 
0.000981 
0.001032 
0.001085 
0.001140 
0.001197 
0.001257 
0.001319 
0.001383 
0.001451 
0.001520 
0.001593 
0.001668 
0.001746 
0.001827 
0.001910 
0.001997 
0.002087 
0.002180 
0.002276 
0.002375 
0.002478 
0.002584 
0.002693 
0.002806 
0.002922 
0.003042 
0.003165 
0.003292 
0.003423 
0.003557 
0.003695 
0.003836 
0.003982 
0.004131 
0.004284 
0.004441 
0.004602 
0.004766 
0.004935 
0.005107 
0.005283 
0.005463 
0.005647 
0.005834 
0.006026 
0.006221 
0.006420 
0.006622 
0.006828 
0.007038 
0.007252 
0.007469 
0.007689 
0.007913 
0.008140 
0.008371 
0.008604 
0.008841 
0.009081 
0.009324 
0.009570 
0.009819 
0.010070 
0.010324 
0.010581 
0.010840 
0.011101 
0.011364 
0.011630 
0.011897 
0.012167 
0.012438 
0.012711 
0.012985 
0.013260 
0.013537 
0.013815 
0.014094 
0.014374 
0.014654 
0.014935 
0.015217 
0.015499 
0.015781 
0.016063 
0.016345 
0.016626 
0.016907 
0.017188 
0.017468 
0.017747 
0.018025 
0.018303 
0.018578 
0.018853 
0.019126 
0.019398 
0.019667 
0.019935 
0.020201 
0.020465 
0.020726 
0.020985 
0.021242 
0.021496 
0.021747 
0.021995 
0.022240 
0.022482 
0.022721 
0.022957 
0.023189 
0.023418 
0.023643 
0.023864 
0.024082 
0.024295 
0.024505 
0.024710 
0.024912 
0.025108 
0.025301 
0.025489 
0.025673 
0.025852 
0.026026 
0.026196 
0.026361 
0.026521 
0.026676 
0.026826 
0.026970 
0.027110 
0.027245 
0.027374 
0.027498 
0.027617 
0.027731 
0.027839 
0.027941 
0.028038 
0.028130 
0.028216 
0.028296 
0.028371 
0.028440 
0.028504 
0.028561 
0.028613 
0.028660 
0.028700 
0.028735 
0.028764 
0.028787 
0.028805 
0.028816 
0.028822 
0.000000 
0.000000 
0.000000 
0.000000 
0.000000 
0.000000 
0.000000 
0.000000 
0.000000 
0.000000 
0.000000 
0.000000 
0.000000 
0.000000 
0.000000 
0.000000 
0.000000 
0.000000 
0.000000 
0.000000 
0.000000 
0.000000 
0.000000 
0.000000 
0.000000 
0.000000 
0.000000 
0.000000 
0.000000 
0.000000 
0.000000 
0.000000 
0.000000 
0.000000 
0.000000 
0.000000 
0.000001 
0.000001 
0.000001 
0.000001 
0.000001 
0.000001 
0.000001 
0.000001 
0.000001 
0.000001 
0.000001 
0.000001 
0.000002 
0.000002 
0.000002 
0.000002 
0.000002 
0.000002 
0.000003 
0.000003 
0.000003 
0.000003 
0.000004 
0.000004 
0.000004 
0.000005 
0.000005 
0.000006 
0.000006 
0.000007 
0.000007 
0.000008 
0.000009 
0.000009 
0.000010 
0.000011 
0.000012 
0.000013 
0.000014 
0.000015 
0.000016 
0.000018 
0.000019 
0.000021 
0.000022 
0.000024 
0.000026 
0.000028 
0.000030 
0.000033 
0.000035 
0.000038 
0.000041 
0.000044 
0.000047 
0.000051 
0.000054 
0.000058 
0.000063 
0.000067 
0.000072 
0.000078 
0.000083 
0.000089 
0.000095 
0.000102 
0.000109 
0.000117 
0.000125 
0.000134 
0.000143 
0.000153 
0.000163 
0.000174 
0.000186 
0.000198 
0.000211 
0.000225 
0.000240 
0.000256 
0.000272 
0.000290 
0.000308 
0.000327 
0.000348 
0.000370 
0.000392 
0.000416 
0.000442 
0.000469 
0.000497 
0.000526 
0.000557 
0.000590 
0.000625 
0.000661 
0.000699 
0.000738 
0.000780 
0.000824 
0.000870 
0.000918 
0.000968 
0.001020 
0.001075 
0.001133 
0.001193 
0.001255 
0.001321 
0.001389 
0.001460 
0.001534 
0.001611 
0.001691 
0.001775 
0.001862 
0.001952 
0.002045 
0.002143 
0.002244 
0.002349 
0.002457 
0.002570 
0.002686 
0.002807 
0.002931 
0.003060 
0.003194 
0.003331 
0.003474 
0.003620 
0.003771 
0.003927 
0.004088 
0.004253 
0.004424 
0.004599 
0.004779 
0.004963 
0.005153 
0.005348 
0.005548 
0.005753 
0.005963 
0.006179 
0.006399 
0.006625 
0.006855 
0.007091 
0.007332 
0.007578 
0.007829 
0.008085 
0.008346 
0.008612 
0.008882 
0.009158 
0.009439 
0.009724 
0.010014 
0.010309 
0.010608 
0.010911 
0.011219 
0.011531 
0.011848 
0.012168 
0.012492 
0.012821 
0.013152 
0.013488 
0.013827 
0.014169 
0.014514 
0.014863 
0.015214 
0.015568 
0.015924 
0.016283 
0.016645 
0.017008 
0.017373 
0.017740 
0.018109 
0.018479 
0.018851 
0.019223 
0.019596 
0.019970 
0.020345 
0.020719 
0.021094 
0.021469 
0.021844 
0.022219 
0.022592 
0.022965 
0.023338 
0.023709 
0.024078 
0.024446 
0.024813 
0.025178 
0.025540 
0.025901 
0.026259 
0.026614 
0.026967 
0.027317 
0.027664 
0.028008 
0.028348 
0.028685 
0.029018 
0.029347 
0.029672 
0.029993 
0.030310 
0.030622 
0.030930 
0.031233 
0.031531 
0.031825 
0.032113 
0.032396 
0.032673 
0.032945 
0.033212 
0.033473 
0.033728 
0.033977 
0.034220 
0.034457 
0.034688 
0.034912 
0.035130 
0.035342 
0.035547 
0.035746 
0.035937 
0.036122 
0.036300 
0.036472 
0.036636 
0.036793 
0.036943 
0.037086 
0.037222 
0.037350 
0.037471 
0.037585 
0.037691 
0.037790 
0.037881 
0.037965 
0.038042 
0.038110 
0.038172 
0.038225 
0.038271 
0.038310 
0.038340 
0.038363 
0.038379 
0.038386 
0.000000 
0.000000 
0.000000 
0.000000 
0.000000 
0.000000 
0.000000 
0.000000 
0.000000 
0.000000 
0.000000 
0.000000 
0.000000 
0.000000 
0.000000 
0.000000 
0.000000 
0.000000 
0.000000 
0.000000 
0.000000 
0.000000 
0.000000 
0.000000 
0.000000 
0.000000 
0.000000 
0.000000 
0.000000 
0.000000 
0.000000 
0.000000 
0.000000 
0.000001 
0.000001 
0.000001 
0.000001 
0.000001 
0.000001 
0.000001 
0.000001 
0.000001 
0.000001 
0.000001 
0.000001 
0.000002 
0.000002 
0.000002 
0.000002 
0.000002 
0.000002 
0.000003 
0.000003 
0.000003 
0.000003 
0.000004 
0.000004 
0.000004 
0.000005 
0.000005 
0.000006 
0.000006 
0.000007 
0.000007 
0.000008 
0.000009 
0.000009 
0.000010 
0.000011 
0.000012 
0.000013 
0.000014 
0.000015 
0.000016 
0.000018 
0.000019 
0.000021 
0.000023 
0.000024 
0.000026 
0.000028 
0.000031 
0.000033 
0.000036 
0.000038 
0.000041 
0.000045 
0.000048 
0.000052 
0.000056 
0.000060 
0.000064 
0.000069 
0.000074 
0.000080 
0.000085 
0.000092 
0.000098 
0.000105 
0.000113 
0.000121 
0.000130 
0.000139 
0.000148 
0.000159 
0.000170 
0.000181 
0.000194 
0.000207 
0.000221 
0.000236 
0.000251 
0.000268 
0.000286 
0.000304 
0.000324 
0.000345 
0.000367 
0.000390 
0.000415 
0.000441 
0.000468 
0.000497 
0.000528 
0.000560 
0.000594 
0.000629 
0.000667 
0.000706 
0.000747 
0.000791 
0.000837 
0.000885 
0.000935 
0.000988 
0.001043 
0.001101 
0.001162 
0.001225 
0.001292 
0.001361 
0.001434 
0.001509 
0.001589 
0.001671 
0.001757 
0.001847 
0.001941 
0.002038 
0.002139 
0.002245 
0.002354 
0.002468 
0.002587 
0.002709 
0.002837 
0.002969 
0.003106 
0.003248 
0.003395 
0.003547 
0.003704 
0.003867 
0.004035 
0.004209 
0.004388 
0.004573 
0.004763 
0.004960 
0.005162 
0.005370 
0.005585 
0.005805 
0.006031 
0.006264 
0.006503 
0.006748 
0.007000 
0.007258 
0.007522 
0.007793 
0.008070 
0.008353 
0.008643 
0.008939 
0.009242 
0.009551 
0.009866 
0.010187 
0.010515 
0.010849 
0.011189 
0.011535 
0.011887 
0.012244 
0.012608 
0.012977 
0.013352 
0.013733 
0.014118 
0.014510 
0.014906 
0.015307 
0.015713 
0.016124 
0.016539 
0.016959 
0.017383 
0.017811 
0.018243 
0.018678 
0.019117 
0.019560 
0.020005 
0.020454 
0.020905 
0.021359 
0.021815 
0.022273 
0.022733 
0.023195 
0.023659 
0.024123 
0.024589 
0.025055 
0.025522 
0.025989 
0.026457 
0.026924 
0.027391 
0.027857 
0.028323 
0.028787 
0.029250 
0.029712 
0.030172 
0.030630 
0.031086 
0.031540 
0.031991 
0.032439 
0.032885 
0.033327 
0.033765 
0.034200 
0.034631 
0.035058 
0.035481 
0.035899 
0.036313 
0.036721 
0.037125 
0.037524 
0.037917 
0.038305 
0.038687 
0.039063 
0.039433 
0.039796 
0.040154 
0.040505 
0.040849 
0.041186 
0.041516 
0.041840 
0.042156 
0.042465 
0.042766 
0.043060 
0.043346 
0.043624 
0.043894 
0.044156 
0.044410 
0.044656 
0.044893 
0.045122 
0.045343 
0.045555 
0.045758 
0.045953 
0.046138 
0.046315 
0.046483 
0.046642 
0.046792 
0.046933 
0.047064 
0.047187 
0.047300 
0.047404 
0.047498 
0.047583 
0.047659 
0.047725 
0.047782 
0.047830 
0.047868 
0.047896 
0.047915 
0.047925 
0.000000 
0.000000 
0.000000 
0.000000 
0.000000 
0.000000 
0.000000 
0.000000 
0.000000 
0.000000 
0.000000 
0.000000 
0.000000 
0.000000 
0.000000 
0.000000 
0.000000 
0.000000 
0.000000 
0.000000 
0.000000 
0.000000 
0.000000 
0.000000 
0.000000 
0.000000 
0.000000 
0.000000 
0.000000 
0.000000 
0.000000 
0.000001 
0.000001 
0.000001 
0.000001 
0.000001 
0.000001 
0.000001 
0.000001 
0.000001 
0.000001 
0.000001 
0.000001 
0.000002 
0.000002 
0.000002 
0.000002 
0.000002 
0.000002 
0.000003 
0.000003 
0.000003 
0.000004 
0.000004 
0.000004 
0.000005 
0.000005 
0.000005 
0.000006 
0.000006 
0.000007 
0.000008 
0.000008 
0.000009 
0.000010 
0.000011 
0.000011 
0.000012 
0.000013 
0.000015 
0.000016 
0.000017 
0.000019 
0.000020 
0.000022 
0.000024 
0.000025 
0.000028 
0.000030 
0.000032 
0.000035 
0.000037 
0.000040 
0.000044 
0.000047 
0.000051 
0.000054 
0.000059 
0.000063 
0.000068 
0.000073 
0.000078 
0.000084 
0.000091 
0.000097 
0.000104 
0.000112 
0.000120 
0.000129 
0.000138 
0.000148 
0.000158 
0.000169 
0.000181 
0.000194 
0.000207 
0.000221 
0.000237 
0.000253 
0.000270 
0.000288 
0.000307 
0.000327 
0.000349 
0.000371 
0.000395 
0.000421 
0.000448 
0.000476 
0.000506 
0.000538 
0.000571 
0.000606 
0.000644 
0.000683 
0.000724 
0.000767 
0.000813 
0.000861 
0.000911 
0.000964 
0.001020 
0.001078 
0.001140 
0.001204 
0.001271 
0.001342 
0.001416 
0.001493 
0.001574 
0.001658 
0.001747 
0.001839 
0.001935 
0.002035 
0.002140 
0.002249 
0.002363 
0.002481 
0.002604 
0.002733 
0.002866 
0.003004 
0.003148 
0.003297 
0.003452 
0.003612 
0.003779 
0.003951 
0.004129 
0.004314 
0.004504 
0.004702 
0.004905 
0.005116 
0.005333 
0.005557 
0.005788 
0.006026 
0.006271 
0.006523 
0.006783 
0.007049 
0.007324 
0.007605 
0.007894 
0.008191 
0.008495 
0.008807 
0.009126 
0.009454 
0.009788 
0.010131 
0.010481 
0.010838 
0.011204 
0.011576 
0.011957 
0.012345 
0.012740 
0.013142 
0.013552 
0.013969 
0.014393 
0.014825 
0.015263 
0.015707 
0.016159 
0.016617 
0.017081 
0.017552 
0.018028 
0.018511 
0.018999 
0.019493 
0.019992 
0.020496 
0.021006 
0.021520 
0.022038 
0.022561 
0.023088 
0.023619 
0.024154 
0.024692 
0.025233 
0.025777 
0.026324 
0.026873 
0.027424 
0.027977 
0.028532 
0.029088 
0.029645 
0.030204 
0.030762 
0.031321 
0.031880 
0.032439 
0.032997 
0.033554 
0.034111 
0.034666 
0.035219 
0.035771 
0.036320 
0.036867 
0.037411 
0.037952 
0.038490 
0.039025 
0.039556 
0.040083 
0.040606 
0.041124 
0.041638 
0.042147 
0.042650 
0.043149 
0.043641 
0.044128 
0.044609 
0.045083 
0.045551 
0.046012 
0.046467 
0.046914 
0.047354 
0.047787 
0.048212 
0.048629 
0.049038 
0.049439 
0.049832 
0.050216 
0.050591 
0.050958 
0.051316 
0.051665 
0.052004 
0.052335 
0.052656 
0.052967 
0.053268 
0.053560 
0.053842 
0.054114 
0.054376 
0.054627 
0.054868 
0.055099 
0.055319 
0.055529 
0.055728 
0.055917 
0.056095 
0.056262 
0.056418 
0.056563 
0.056697 
0.056820 
0.056932 
0.057033 
0.057123 
0.057202 
0.057269 
0.057325 
0.057370 
0.057404 
0.057427 
0.057438 
0.000000 
0.000000 
0.000000 
0.000000 
0.000000 
0.000000 
0.000000 
0.000000 
0.000000 
0.000000 
0.000000 
0.000000 
0.000000 
0.000000 
0.000000 
0.000000 
0.000000 
0.000000 
0.000000 
0.000000 
0.000000 
0.000000 
0.000000 
0.000000 
0.000000 
0.000000 
0.000000 
0.000000 
0.000000 
0.000001 
0.000001 
0.000001 
0.000001 
0.000001 
0.000001 
0.000001 
0.000001 
0.000001 
0.000001 
0.000001 
0.000001 
0.000002 
0.000002 
0.000002 
0.000002 
0.000002 
0.000002 
0.000003 
0.000003 
0.000003 
0.000004 
0.000004 
0.000004 
0.000005 
0.000005 
0.000005 
0.000006 
0.000006 
0.000007 
0.000008 
0.000008 
0.000009 
0.000010 
0.000011 
0.000012 
0.000013 
0.000014 
0.000015 
0.000016 
0.000017 
0.000019 
0.000020 
0.000022 
0.000024 
0.000026 
0.000028 
0.000030 
0.000033 
0.000035 
0.000038 
0.000041 
0.000045 
0.000048 
0.000052 
0.000056 
0.000060 
0.000065 
0.000070 
0.000075 
0.000081 
0.000087 
0.000093 
0.000100 
0.000108 
0.000116 
0.000124 
0.000133 
0.000143 
0.000153 
0.000164 
0.000176 
0.000188 
0.000202 
0.000216 
0.000231 
0.000247 
0.000264 
0.000282 
0.000301 
0.000321 
0.000342 
0.000365 
0.000389 
0.000415 
0.000442 
0.000470 
0.000501 
0.000533 
0.000566 
0.000602 
0.000640 
0.000679 
0.000721 
0.000765 
0.000812 
0.000861 
0.000912 
0.000966 
0.001023 
0.001083 
0.001146 
0.001212 
0.001282 
0.001354 
0.001431 
0.001510 
0.001594 
0.001682 
0.001773 
0.001869 
0.001969 
0.002074 
0.002183 
0.002297 
0.002416 
0.002540 
0.002670 
0.002804 
0.002944 
0.003090 
0.003242 
0.003399 
0.003563 
0.003733 
0.003910 
0.004093 
0.004282 
0.004479 
0.004683 
0.004893 
0.005111 
0.005337 
0.005570 
0.005811 
0.006059 
0.006315 
0.006580 
0.006852 
0.007133 
0.007422 
0.007719 
0.008025 
0.008340 
0.008663 
0.008994 
0.009335 
0.009684 
0.010042 
0.010410 
0.010785 
0.011170 
0.011564 
0.011967 
0.012378 
0.012798 
0.013228 
0.013666 
0.014112 
0.014568 
0.015032 
0.015504 
0.015985 
0.016474 
0.016971 
0.017477 
0.017990 
0.018511 
0.019040 
0.019576 
0.020120 
0.020671 
0.021229 
0.021793 
0.022364 
0.022941 
0.023525 
0.024114 
0.024709 
0.025310 
0.025915 
0.026526 
0.027141 
0.027760 
0.028384 
0.029011 
0.029642 
0.030276 
0.030913 
0.031553 
0.032195 
0.032839 
0.033485 
0.034132 
0.034780 
0.035429 
0.036079 
0.036729 
0.037378 
0.038028 
0.038676 
0.039323 
0.039969 
0.040614 
0.041256 
0.041896 
0.042533 
0.043167 
0.043798 
0.044426 
0.045050 
0.045669 
0.046284 
0.046895 
0.047500 
0.048100 
0.048695 
0.049284 
0.049866 
0.050443 
0.051013 
0.051575 
0.052131 
0.052680 
0.053221 
0.053754 
0.054279 
0.054795 
0.055304 
0.055803 
0.056294 
0.056775 
0.057248 
0.057710 
0.058164 
0.058607 
0.059040 
0.059463 
0.059876 
0.060278 
0.060670 
0.061051 
0.061420 
0.061779 
0.062127 
0.062463 
0.062788 
0.063101 
0.063402 
0.063692 
0.063970 
0.064236 
0.064489 
0.064731 
0.064960 
0.065177 
0.065382 
0.065574 
0.065754 
0.065921 
0.066075 
0.066217 
0.066346 
0.066462 
0.066566 
0.066656 
0.066734 
0.066798 
0.066850 
0.066889 
0.066915 
0.066928 
0.000000 
0.000000 
0.000000 
0.000000 
0.000000 
0.000000 
0.000000 
0.000000 
0.000000 
0.000000 
0.000000 
0.000000 
0.000000 
0.000000 
0.000000 
0.000000 
0.000000 
0.000000 
0.000000 
0.000000 
0.000000 
0.000000 
0.000000 
0.000000 
0.000000 
0.000000 
0.000000 
0.000000 
0.000001 
0.000001 
0.000001 
0.000001 
0.000001 
0.000001 
0.000001 
0.000001 
0.000001 
0.000001 
0.000001 
0.000002 
0.000002 
0.000002 
0.000002 
0.000002 
0.000002 
0.000003 
0.000003 
0.000003 
0.000003 
0.000004 
0.000004 
0.000004 
0.000005 
0.000005 
0.000006 
0.000006 
0.000007 
0.000008 
0.000008 
0.000009 
0.000010 
0.000011 
0.000011 
0.000012 
0.000014 
0.000015 
0.000016 
0.000017 
0.000019 
0.000020 
0.000022 
0.000024 
0.000026 
0.000028 
0.000030 
0.000033 
0.000035 
0.000038 
0.000041 
0.000045 
0.000048 
0.000052 
0.000056 
0.000061 
0.000065 
0.000070 
0.000076 
0.000082 
0.000088 
0.000095 
0.000102 
0.000109 
0.000117 
0.000126 
0.000135 
0.000145 
0.000156 
0.000167 
0.000179 
0.000192 
0.000206 
0.000220 
0.000236 
0.000252 
0.000270 
0.000288 
0.000308 
0.000329 
0.000352 
0.000375 
0.000400 
0.000427 
0.000455 
0.000485 
0.000516 
0.000550 
0.000585 
0.000622 
0.000662 
0.000703 
0.000747 
0.000793 
0.000842 
0.000894 
0.000948 
0.001005 
0.001065 
0.001128 
0.001195 
0.001265 
0.001338 
0.001415 
0.001496 
0.001580 
0.001669 
0.001762 
0.001860 
0.001962 
0.002068 
0.002180 
0.002297 
0.002418 
0.002546 
0.002678 
0.002817 
0.002961 
0.003111 
0.003268 
0.003431 
0.003600 
0.003776 
0.003960 
0.004150 
0.004347 
0.004552 
0.004764 
0.004985 
0.005213 
0.005449 
0.005693 
0.005946 
0.006208 
0.006478 
0.006756 
0.007044 
0.007341 
0.007647 
0.007963 
0.008288 
0.008622 
0.008966 
0.009320 
0.009683 
0.010057 
0.010440 
0.010834 
0.011237 
0.011651 
0.012075 
0.012508 
0.012952 
0.013407 
0.013871 
0.014345 
0.014830 
0.015324 
0.015829 
0.016343 
0.016867 
0.017401 
0.017945 
0.018498 
0.019060 
0.019632 
0.020213 
0.020803 
0.021401 
0.022008 
0.022624 
0.023248 
0.023880 
0.024519 
0.025166 
0.025821 
0.026482 
0.027151 
0.027825 
0.028507 
0.029194 
0.029886 
0.030585 
0.031288 
0.031996 
0.032708 
0.033425 
0.034145 
0.034869 
0.035596 
0.036326 
0.037059 
0.037793 
0.038529 
0.039267 
0.040006 
0.040745 
0.041485 
0.042225 
0.042964 
0.043703 
0.044440 
0.045176 
0.045911 
0.046643 
0.047373 
0.048100 
0.048823 
0.049544 
0.050260 
0.050972 
0.051680 
0.052382 
0.053080 
0.053772 
0.054458 
0.055138 
0.055812 
0.056479 
0.057139 
0.057791 
0.058436 
0.059073 
0.059702 
0.060323 
0.060934 
0.061537 
0.062131 
0.062715 
0.063289 
0.063854 
0.064408 
0.064952 
0.065485 
0.066008 
0.066519 
0.067020 
0.067509 
0.067986 
0.068452 
0.068906 
0.069347 
0.069777 
0.070194 
0.070598 
0.070990 
0.071369 
0.071735 
0.072088 
0.072428 
0.072754 
0.073067 
0.073367 
0.073653 
0.073925 
0.074183 
0.074428 
0.074658 
0.074874 
0.075077 
0.075265 
0.075439 
0.075598 
0.075743 
0.075874 
0.075991 
0.076092 
0.076180 
0.076253 
0.076311 
0.076355 
0.076384 
0.076399 
0.000000 
0.000000 
0.000000 
0.000000 
0.000000 
0.000000 
0.000000 
0.000000 
0.000000 
0.000000 
0.000000 
0.000000 
0.000000 
0.000000 
0.000000 
0.000000 
0.000000 
0.000000 
0.000000 
0.000000 
0.000000 
0.000000 
0.000000 
0.000000 
0.000000 
0.000000 