# vtk DataFile Version 3.0
results.vtk
ASCII
DATASET RECTILINEAR_GRID
DIMENSIONS 301 301 1
X_COORDINATES 301 double
0.000000 0.003333 0.006667 0.010000 0.013333 0.016667 0.020000 0.023333 0.026667 0.030000 0.033333 0.036667 0.040000 0.043333 0.046667 0.050000 0.053333 0.056667 0.060000 0.063333 0.066667 0.070000 0.073333 0.076667 0.080000 0.083333 0.086667 0.090000 0.093333 0.096667 0.100000 0.103333 0.106667 0.110000 0.113333 0.116667 0.120000 0.123333 0.126667 0.130000 0.133333 0.136667 0.140000 0.143333 0.146667 0.150000 0.153333 0.156667 0.160000 0.163333 0.166667 0.170000 0.173333 0.176667 0.180000 0.183333 0.186667 0.190000 0.193333 0.196667 0.200000 0.203333 0.206667 0.210000 0.213333 0.216667 0.220000 0.223333 0.226667 0.230000 0.233333 0.236667 0.240000 0.243333 0.246667 0.250000 0.253333 0.256667 0.260000 0.263333 0.266667 0.270000 0.273333 0.276667 0.280000 0.283333 0.286667 0.290000 0.293333 0.296667 0.300000 0.303333 0.306667 0.310000 0.313333 0.316667 0.320000 0.323333 0.326667 0.330000 0.333333 0.336667 0.340000 0.343333 0.346667 0.350000 0.353333 0.356667 0.360000 0.363333 0.366667 0.370000 0.373333 0.376667 0.380000 0.383333 0.386667 0.390000 0.393333 0.396667 0.400000 0.403333 0.406667 0.410000 0.413333 0.416667 0.420000 0.423333 0.426667 0.430000 0.433333 0.436667 0.440000 0.443333 0.446667 0.450000 0.453333 0.456667 0.460000 0.463333 0.466667 0.470000 0.473333 0.476667 0.480000 0.483333 0.486667 0.490000 0.493333 0.496667 0.500000 0.503333 0.506667 0.510000 0.513333 0.516667 0.520000 0.523333 0.526667 0.530000 0.533333 0.536667 0.540000 0.543333 0.546667 0.550000 0.553333 0.556667 0.560000 0.563333 0.566667 0.570000 0.573333 0.576667 0.580000 0.583333 0.586667 0.590000 0.593333 0.596667 0.600000 0.603333 0.606667 0.610000 0.613333 0.616667 0.620000 0.623333 0.626667 0.630000 0.633333 0.636667 0.640000 0.643333 0.646667 0.650000 0.653333 0.656667 0.660000 0.663333 0.666667 0.670000 0.673333 0.676667 0.680000 0.683333 0.686667 0.690000 0.693333 0.696667 0.700000 0.703333 0.706667 0.710000 0.713333 0.716667 0.720000 0.723333 0.726667 0.730000 0.733333 0.736667 0.740000 0.743333 0.746667 0.750000 0.753333 0.756667 0.760000 0.763333 0.766667 0.770000 0.773333 0.776667 0.780000 0.783333 0.786667 0.790000 0.793333 0.796667 0.800000 0.803333 0.806667 0.810000 0.813333 0.816667 0.820000 0.823333 0.826667 0.830000 0.833333 0.836667 0.840000 0.843333 0.846667 0.850000 0.853333 0.856667 0.860000 0.863333 0.866667 0.870000 0.873333 0.876667 0.880000 0.883333 0.886667 0.890000 0.893333 0.896667 0.900000 0.903333 0.906667 0.910000 0.913333 0.916667 0.920000 0.923333 0.926667 0.930000 0.933333 0.936667 0.940000 0.943333 0.946667 0.950000 0.953333 0.956667 0.960000 0.963333 0.966667 0.970000 0.973333 0.976667 0.980000 0.983333 0.986667 0.990000 0.993333 0.996667 1.000000 
Y_COORDINATES 301 double
0.000000 0.003333 0.006667 0.010000 0.013333 0.016667 0.020000 0.023333 0.026667 0.030000 0.033333 0.036667 0.040000 0.043333 0.046667 0.050000 0.053333 0.056667 0.060000 0.063333 0.066667 0.070000 0.073333 0.076667 0.080000 0.083333 0.086667 0.090000 0.093333 0.096667 0.100000 0.103333 0.106667 0.110000 0.113333 0.116667 0.120000 0.123333 0.126667 0.130000 0.133333 0.136667 0.140000 0.143333 0.146667 0.150000 0.153333 0.156667 0.160000 0.163333 0.166667 0.170000 0.173333 0.176667 0.180000 0.183333 0.186667 0.190000 0.193333 0.196667 0.200000 0.203333 0.206667 0.210000 0.213333 0.216667 0.220000 0.223333 0.226667 0.230000 0.233333 0.236667 0.240000 0.243333 0.246667 0.250000 0.253333 0.256667 0.260000 0.263333 0.266667 0.270000 0.273333 0.276667 0.280000 0.283333 0.286667 0.290000 0.293333 0.296667 0.300000 0.303333 0.306667 0.310000 0.313333 0.316667 0.320000 0.323333 0.326667 0.330000 0.333333 0.336667 0.340000 0.343333 0.346667 0.350000 0.353333 0.356667 0.360000 0.363333 0.366667 0.370000 0.373333 0.376667 0.380000 0.383333 0.386667 0.390000 0.393333 0.396667 0.400000 0.403333 0.406667 0.410000 0.413333 0.416667 0.420000 0.423333 0.426667 0.430000 0.433333 0.436667 0.440000 0.443333 0.446667 0.450000 0.453333 0.456667 0.460000 0.463333 0.466667 0.470000 0.473333 0.476667 0.480000 0.483333 0.486667 0.490000 0.493333 0.496667 0.500000 0.503333 0.506667 0.510000 0.513333 0.516667 0.520000 0.523333 0.526667 0.530000 0.533333 0.536667 0.540000 0.543333 0.546667 0.550000 0.553333 0.556667 0.560000 0.563333 0.566667 0.570000 0.573333 0.576667 0.580000 0.583333 0.586667 0.590000 0.593333 0.596667 0.600000 0.603333 0.606667 0.610000 0.613333 0.616667 0.620000 0.623333 0.626667 0.630000 0.633333 0.636667 0.640000 0.643333 0.646667 0.650000 0.653333 0.656667 0.660000 0.663333 0.666667 0.670000 0.673333 0.676667 0.680000 0.683333 0.686667 0.690000 0.693333 0.696667 0.700000 0.703333 0.706667 0.710000 0.713333 0.716667 0.720000 0.723333 0.726667 0.730000 0.733333 0.736667 0.740000 0.743333 0.746667 0.750000 0.753333 0.756667 0.760000 0.763333 0.766667 0.770000 0.773333 0.776667 0.780000 0.783333 0.786667 0.790000 0.793333 0.796667 0.800000 0.803333 0.806667 0.810000 0.813333 0.816667 0.820000 0.823333 0.826667 0.830000 0.833333 0.836667 0.840000 0.843333 0.846667 0.850000 0.853333 0.856667 0.860000 0.863333 0.866667 0.870000 0.873333 0.876667 0.880000 0.883333 0.886667 0.890000 0.893333 0.896667 0.900000 0.903333 0.906667 0.910000 0.913333 0.916667 0.920000 0.923333 0.926667 0.930000 0.933333 0.936667 0.940000 0.943333 0.946667 0.950000 0.953333 0.956667 0.960000 0.963333 0.966667 0.970000 0.973333 0.976667 0.980000 0.983333 0.986667 0.990000 0.993333 0.996667 1.000000 
Z_COORDINATES 1 double
0
POINT_DATA 90601 
FIELD FieldData 1 
Concentração 1 90601 double 
0.000000 
0.000000 
0.000000 
0.000000 
0.000000 
0.000000 
0.000000 
0.000000 
0.000000 
0.000000 
0.000000 
0.000000 
0.000000 
0.000000 
0.000000 
0.000000 
0.000000 
0.000000 
0.000000 
0.000000 
0.000000 
0.000000 
0.000000 
0.000000 
0.000000 
0.000000 
0.000000 
0.000000 
0.000000 
0.000000 
0.000000 
0.000000 
0.000000 
0.000000 
0.000000 
0.000000 
0.000000 
0.000000 
0.000000 
0.000000 
0.000000 
0.000000 
0.000000 
0.000000 
0.000000 
0.000000 
0.000000 
0.000000 
0.000000 
0.000000 
0.000000 
0.000000 
0.000000 
0.000000 
0.000000 
0.000000 
0.000000 
0.000000 
0.000000 
0.000000 
0.000000 
0.000000 
0.000000 
0.000000 
0.000000 
0.000000 
0.000000 
0.000000 
0.000000 
0.000000 
0.000000 
0.000001 
0.000001 
0.000001 
0.000001 
0.000001 
0.000001 
0.000001 
0.000001 
0.000001 
0.000001 
0.000001 
0.000001 
0.000001 
0.000001 
0.000002 
0.000002 
0.000002 
0.000002 
0.000002 
0.000002 
0.000003 
0.000003 
0.000003 
0.000003 
0.000003 
0.000004 
0.000004 
0.000004 
0.000005 
0.000005 
0.000005 
0.000006 
0.000006 
0.000007 
0.000007 
0.000008 
0.000008 
0.000009 
0.000009 
0.000010 
0.000011 
0.000011 
0.000012 
0.000013 
0.000014 
0.000015 
0.000016 
0.000017 
0.000018 
0.000019 
0.000021 
0.000022 
0.000023 
0.000025 
0.000026 
0.000028 
0.000030 
0.000032 
0.000034 
0.000036 
0.000038 
0.000041 
0.000043 
0.000046 
0.000048 
0.000051 
0.000054 
0.000057 
0.000061 
0.000064 
0.000068 
0.000072 
0.000076 
0.000080 
0.000085 
0.000089 
0.000094 
0.000099 
0.000105 
0.000110 
0.000116 
0.000123 
0.000129 
0.000136 
0.000143 
0.000150 
0.000158 
0.000165 
0.000174 
0.000182 
0.000191 
0.000201 
0.000210 
0.000220 
0.000231 
0.000241 
0.000253 
0.000264 
0.000276 
0.000289 
0.000302 
0.000315 
0.000329 
0.000343 
0.000358 
0.000373 
0.000389 
0.000405 
0.000422 
0.000439 
0.000457 
0.000476 
0.000494 
0.000514 
0.000534 
0.000554 
0.000576 
0.000597 
0.000619 
0.000642 
0.000666 
0.000689 
0.000714 
0.000739 
0.000765 
0.000791 
0.000818 
0.000845 
0.000873 
0.000902 
0.000931 
0.000961 
0.000991 
0.001022 
0.001053 
0.001085 
0.001118 
0.001151 
0.001185 
0.001219 
0.001253 
0.001289 
0.001324 
0.001360 
0.001397 
0.001434 
0.001471 
0.001509 
0.001547 
0.001586 
0.001625 
0.001665 
0.001704 
0.001745 
0.001785 
0.001826 
0.001867 
0.001908 
0.001949 
0.001991 
0.002033 
0.002075 
0.002117 
0.002159 
0.002202 
0.002244 
0.002287 
0.002329 
0.002372 
0.002414 
0.002457 
0.002499 
0.002541 
0.002583 
0.002625 
0.002667 
0.002709 
0.002750 
0.002791 
0.002832 
0.002873 
0.002913 
0.002953 
0.002992 
0.003032 
0.003070 
0.003108 
0.003146 
0.003183 
0.003220 
0.003256 
0.003292 
0.003327 
0.003361 
0.003395 
0.003428 
0.003460 
0.003492 
0.003523 
0.003553 
0.003583 
0.003611 
0.003639 
0.003666 
0.003692 
0.003718 
0.003742 
0.003765 
0.003788 
0.003810 
0.003831 
0.003850 
0.003869 
0.003887 
0.003904 
0.003920 
0.003935 
0.003949 
0.003961 
0.003973 
0.003984 
0.003994 
0.004002 
0.004010 
0.004016 
0.004022 
0.004026 
0.004029 
0.004031 
0.004032 
0.000000 
0.000000 
0.000000 
0.000000 
0.000000 
0.000000 
0.000000 
0.000000 
0.000000 
0.000000 
0.000000 
0.000000 
0.000000 
0.000000 
0.000000 
0.000000 
0.000000 
0.000000 
0.000000 
0.000000 
0.000000 
0.000000 
0.000000 
0.000000 
0.000000 
0.000000 
0.000000 
0.000000 
0.000000 
0.000000 
0.000000 
0.000000 
0.000000 
0.000000 
0.000000 
0.000000 
0.000000 
0.000000 
0.000000 
0.000000 
0.000000 
0.000000 
0.000000 
0.000000 
0.000000 
0.000000 
0.000000 
0.000000 
0.000000 
0.000000 
0.000000 
0.000000 
0.000000 
0.000000 
0.000000 
0.000000 
0.000000 
0.000000 
0.000000 
0.000000 
0.000000 
0.000000 
0.000000 
0.000001 
0.000001 
0.000001 
0.000001 
0.000001 
0.000001 
0.000001 
0.000001 
0.000001 
0.000001 
0.000001 
0.000001 
0.000001 
0.000002 
0.000002 
0.000002 
0.000002 
0.000002 
0.000002 
0.000003 
0.000003 
0.000003 
0.000003 
0.000003 
0.000004 
0.000004 
0.000004 
0.000005 
0.000005 
0.000006 
0.000006 
0.000006 
0.000007 
0.000007 
0.000008 
0.000009 
0.000009 
0.000010 
0.000011 
0.000011 
0.000012 
0.000013 
0.000014 
0.000015 
0.000016 
0.000017 
0.000019 
0.000020 
0.000021 
0.000023 
0.000025 
0.000026 
0.000028 
0.000030 
0.000032 
0.000034 
0.000036 
0.000039 
0.000041 
0.000044 
0.000047 
0.000050 
0.000053 
0.000057 
0.000060 
0.000064 
0.000068 
0.000072 
0.000077 
0.000081 
0.000086 
0.000092 
0.000097 
0.000103 
0.000109 
0.000115 
0.000122 
0.000129 
0.000137 
0.000145 
0.000153 
0.000161 
0.000170 
0.000180 
0.000190 
0.000200 
0.000211 
0.000222 
0.000234 
0.000246 
0.000259 
0.000273 
0.000287 
0.000301 
0.000317 
0.000333 
0.000349 
0.000366 
0.000384 
0.000403 
0.000422 
0.000443 
0.000463 
0.000485 
0.000508 
0.000531 
0.000555 
0.000580 
0.000606 
0.000633 
0.000661 
0.000690 
0.000719 
0.000750 
0.000782 
0.000814 
0.000848 
0.000883 
0.000919 
0.000955 
0.000993 
0.001032 
0.001072 
0.001114 
0.001156 
0.001199 
0.001244 
0.001290 
0.001337 
0.001385 
0.001434 
0.001484 
0.001536 
0.001588 
0.001642 
0.001697 
0.001754 
0.001811 
0.001869 
0.001929 
0.001990 
0.002052 
0.002115 
0.002179 
0.002244 
0.002310 
0.002378 
0.002446 
0.002516 
0.002586 
0.002658 
0.002730 
0.002803 
0.002877 
0.002952 
0.003028 
0.003105 
0.003183 
0.003261 
0.003340 
0.003420 
0.003500 
0.003581 
0.003663 
0.003745 
0.003827 
0.003910 
0.003994 
0.004078 
0.004162 
0.004246 
0.004331 
0.004416 
0.004501 
0.004586 
0.004671 
0.004756 
0.004841 
0.004926 
0.005011 
0.005096 
0.005180 
0.005264 
0.005348 
0.005431 
0.005514 
0.005597 
0.005678 
0.005760 
0.005840 
0.005920 
0.005999 
0.006077 
0.006155 
0.006231 
0.006307 
0.006381 
0.006455 
0.006527 
0.006598 
0.006668 
0.006737 
0.006805 
0.006871 
0.006936 
0.006999 
0.007061 
0.007121 
0.007180 
0.007237 
0.007293 
0.007347 
0.007399 
0.007450 
0.007499 
0.007546 
0.007591 
0.007634 
0.007676 
0.007716 
0.007753 
0.007789 
0.007823 
0.007854 
0.007884 
0.007912 
0.007937 
0.007961 
0.007982 
0.008002 
0.008019 
0.008034 
0.008047 
0.008058 
0.008067 
0.008073 
0.008077 
0.008080 
0.000000 
0.000000 
0.000000 
0.000000 
0.000000 
0.000000 
0.000000 
0.000000 
0.000000 
0.000000 
0.000000 
0.000000 
0.000000 
0.000000 
0.000000 
0.000000 
0.000000 
0.000000 
0.000000 
0.000000 
0.000000 
0.000000 
0.000000 
0.000000 
0.000000 
0.000000 
0.000000 
0.000000 
0.000000 
0.000000 
0.000000 
0.000000 
0.000000 
0.000000 
0.000000 
0.000000 
0.000000 
0.000000 
0.000000 
0.000000 
0.000000 
0.000000 
0.000000 
0.000000 
0.000000 
0.000000 
0.000000 
0.000000 
0.000000 
0.000000 
0.000000 
0.000000 
0.000000 
0.000000 
0.000000 
0.000000 
0.000000 
0.000000 
0.000001 
0.000001 
0.000001 
0.000001 
0.000001 
0.000001 
0.000001 
0.000001 
0.000001 
0.000001 
0.000001 
0.000001 
0.000001 
0.000002 
0.000002 
0.000002 
0.000002 
0.000002 
0.000002 
0.000003 
0.000003 
0.000003 
0.000003 
0.000004 
0.000004 
0.000004 
0.000005 
0.000005 
0.000005 
0.000006 
0.000006 
0.000007 
0.000007 
0.000008 
0.000008 
0.000009 
0.000010 
0.000010 
0.000011 
0.000012 
0.000013 
0.000014 
0.000015 
0.000016 
0.000017 
0.000019 
0.000020 
0.000021 
0.000023 
0.000025 
0.000026 
0.000028 
0.000030 
0.000032 
0.000035 
0.000037 
0.000040 
0.000042 
0.000045 
0.000048 
0.000052 
0.000055 
0.000059 
0.000063 
0.000067 
0.000071 
0.000076 
0.000081 
0.000086 
0.000091 
0.000097 
0.000103 
0.000109 
0.000116 
0.000123 
0.000131 
0.000139 
0.000147 
0.000156 
0.000165 
0.000175 
0.000185 
0.000196 
0.000207 
0.000219 
0.000231 
0.000244 
0.000258 
0.000272 
0.000287 
0.000302 
0.000319 
0.000336 
0.000354 
0.000372 
0.000392 
0.000412 
0.000434 
0.000456 
0.000479 
0.000503 
0.000528 
0.000554 
0.000581 
0.000609 
0.000639 
0.000669 
0.000701 
0.000733 
0.000767 
0.000803 
0.000839 
0.000877 
0.000916 
0.000957 
0.000999 
0.001042 
0.001087 
0.001133 
0.001181 
0.001231 
0.001281 
0.001334 
0.001388 
0.001443 
0.001501 
0.001559 
0.001620 
0.001682 
0.001746 
0.001811 
0.001879 
0.001948 
0.002019 
0.002091 
0.002165 
0.002241 
0.002319 
0.002398 
0.002480 
0.002563 
0.002647 
0.002734 
0.002822 
0.002912 
0.003004 
0.003097 
0.003192 
0.003289 
0.003387 
0.003487 
0.003588 
0.003691 
0.003796 
0.003902 
0.004009 
0.004118 
0.004229 
0.004341 
0.004454 
0.004568 
0.004684 
0.004800 
0.004918 
0.005037 
0.005157 
0.005278 
0.005400 
0.005523 
0.005646 
0.005770 
0.005895 
0.006021 
0.006147 
0.006274 
0.006401 
0.006528 
0.006655 
0.006783 
0.006911 
0.007039 
0.007167 
0.007295 
0.007423 
0.007551 
0.007678 
0.007805 
0.007931 
0.008057 
0.008182 
0.008307 
0.008430 
0.008553 
0.008675 
0.008796 
0.008916 
0.009035 
0.009152 
0.009269 
0.009383 
0.009497 
0.009609 
0.009719 
0.009828 
0.009935 
0.010040 
0.010143 
0.010244 
0.010343 
0.010441 
0.010536 
0.010629 
0.010719 
0.010808 
0.010893 
0.010977 
0.011058 
0.011137 
0.011212 
0.011286 
0.011356 
0.011424 
0.011489 
0.011552 
0.011611 
0.011668 
0.011721 
0.011772 
0.011819 
0.011864 
0.011905 
0.011944 
0.011979 
0.012011 
0.012040 
0.012066 
0.012089 
0.012108 
0.012125 
0.012138 
0.012147 
0.012154 
0.012157 
0.000000 
0.000000 
0.000000 
0.000000 
0.000000 
0.000000 
0.000000 
0.000000 
0.000000 
0.000000 
0.000000 
0.000000 
0.000000 
0.000000 
0.000000 
0.000000 
0.000000 
0.000000 
0.000000 
0.000000 
0.000000 
0.000000 
0.000000 
0.000000 
0.000000 
0.000000 
0.000000 
0.000000 
0.000000 
0.000000 
0.000000 
0.000000 
0.000000 
0.000000 
0.000000 
0.000000 
0.000000 
0.000000 
0.000000 
0.000000 
0.000000 
0.000000 
0.000000 
0.000000 
0.000000 
0.000000 
0.000000 
0.000000 
0.000000 
0.000000 
0.000000 
0.000000 
0.000000 
0.000000 
0.000000 
0.000001 
0.000001 
0.000001 
0.000001 
0.000001 
0.000001 
0.000001 
0.000001 
0.000001 
0.000001 
0.000001 
0.000001 
0.000002 
0.000002 
0.000002 
0.000002 
0.000002 
0.000002 
0.000003 
0.000003 
0.000003 
0.000003 
0.000003 
0.000004 
0.000004 
0.000004 
0.000005 
0.000005 
0.000006 
0.000006 
0.000007 
0.000007 
0.000008 
0.000008 
0.000009 
0.000010 
0.000010 
0.000011 
0.000012 
0.000013 
0.000014 
0.000015 
0.000016 
0.000018 
0.000019 
0.000020 
0.000022 
0.000023 
0.000025 
0.000027 
0.000029 
0.000031 
0.000033 
0.000036 
0.000038 
0.000041 
0.000044 
0.000047 
0.000050 
0.000054 
0.000057 
0.000061 
0.000065 
0.000070 
0.000074 
0.000079 
0.000084 
0.000090 
0.000096 
0.000102 
0.000109 
0.000116 
0.000123 
0.000131 
0.000139 
0.000147 
0.000157 
0.000166 
0.000176 
0.000187 
0.000198 
0.000210 
0.000222 
0.000236 
0.000249 
0.000264 
0.000279 
0.000295 
0.000312 
0.000329 
0.000347 
0.000367 
0.000387 
0.000408 
0.000430 
0.000453 
0.000477 
0.000502 
0.000529 
0.000556 
0.000585 
0.000614 
0.000646 
0.000678 
0.000712 
0.000747 
0.000783 
0.000821 
0.000861 
0.000902 
0.000944 
0.000989 
0.001034 
0.001082 
0.001131 
0.001182 
0.001235 
0.001289 
0.001346 
0.001404 
0.001465 
0.001527 
0.001591 
0.001657 
0.001726 
0.001796 
0.001869 
0.001944 
0.002021 
0.002100 
0.002181 
0.002265 
0.002351 
0.002439 
0.002529 
0.002622 
0.002717 
0.002814 
0.002914 
0.003016 
0.003121 
0.003227 
0.003336 
0.003448 
0.003562 
0.003678 
0.003796 
0.003917 
0.004040 
0.004165 
0.004293 
0.004422 
0.004554 
0.004688 
0.004824 
0.004963 
0.005103 
0.005245 
0.005389 
0.005536 
0.005684 
0.005833 
0.005985 
0.006138 
0.006293 
0.006449 
0.006607 
0.006767 
0.006927 
0.007089 
0.007253 
0.007417 
0.007582 
0.007749 
0.007916 
0.008084 
0.008253 
0.008422 
0.008592 
0.008763 
0.008934 
0.009105 
0.009276 
0.009447 
0.009618 
0.009789 
0.009960 
0.010131 
0.010301 
0.010470 
0.010639 
0.010808 
0.010975 
0.011141 
0.011307 
0.011471 
0.011634 
0.011796 
0.011956 
0.012114 
0.012271 
0.012427 
0.012580 
0.012731 
0.012881 
0.013028 
0.013173 
0.013316 
0.013456 
0.013594 
0.013729 
0.013862 
0.013991 
0.014118 
0.014242 
0.014363 
0.014481 
0.014596 
0.014707 
0.014815 
0.014920 
0.015021 
0.015119 
0.015213 
0.015304 
0.015390 
0.015473 
0.015553 
0.015628 
0.015700 
0.015767 
0.015831 
0.015890 
0.015945 
0.015997 
0.016044 
0.016087 
0.016125 
0.016160 
0.016190 
0.016216 
0.016238 
0.016255 
0.016268 
0.016277 
0.016281 
0.000000 
0.000000 
0.000000 
0.000000 
0.000000 
0.000000 
0.000000 
0.000000 
0.000000 
0.000000 
0.000000 
0.000000 
0.000000 
0.000000 
0.000000 
0.000000 
0.000000 
0.000000 
0.000000 
0.000000 
0.000000 
0.000000 
0.000000 
0.000000 
0.000000 
0.000000 
0.000000 
0.000000 
0.000000 
0.000000 
0.000000 
0.000000 
0.000000 
0.000000 
0.000000 
0.000000 
0.000000 
0.000000 
0.000000 
0.000000 
0.000000 
0.000000 
0.000000 
0.000000 
0.000000 
0.000000 
0.000000 
0.000000 
0.000000 
0.000000 
0.000000 
0.000000 
0.000001 
0.000001 
0.000001 
0.000001 
0.000001 
0.000001 
0.000001 
0.000001 
0.000001 
0.000001 
0.000001 
0.000001 
0.000002 
0.000002 
0.000002 
0.000002 
0.000002 
0.000002 
0.000002 
0.000003 
0.000003 
0.000003 
0.000003 
0.000004 
0.000004 
0.000004 
0.000005 
0.000005 
0.000006 
0.000006 
0.000007 
0.000007 
0.000008 
0.000008 
0.000009 
0.000010 
0.000011 
0.000011 
0.000012 
0.000013 
0.000014 
0.000015 
0.000017 
0.000018 
0.000019 
0.000021 
0.000022 
0.000024 
0.000026 
0.000028 
0.000030 
0.000032 
0.000034 
0.000037 
0.000039 
0.000042 
0.000045 
0.000049 
0.000052 
0.000056 
0.000059 
0.000064 
0.000068 
0.000073 
0.000078 
0.000083 
0.000088 
0.000094 
0.000101 
0.000107 
0.000114 
0.000122 
0.000130 
0.000138 
0.000147 
0.000156 
0.000166 
0.000176 
0.000187 
0.000199 
0.000211 
0.000224 
0.000237 
0.000252 
0.000267 
0.000282 
0.000299 
0.000316 
0.000335 
0.000354 
0.000374 
0.000395 
0.000417 
0.000441 
0.000465 
0.000491 
0.000517 
0.000545 
0.000574 
0.000605 
0.000637 
0.000670 
0.000705 
0.000741 
0.000779 
0.000818 
0.000860 
0.000902 
0.000947 
0.000993 
0.001041 
0.001091 
0.001143 
0.001197 
0.001253 
0.001311 
0.001371 
0.001433 
0.001498 
0.001564 
0.001634 
0.001705 
0.001779 
0.001855 
0.001934 
0.002015 
0.002099 
0.002185 
0.002275 
0.002366 
0.002461 
0.002558 
0.002658 
0.002761 
0.002866 
0.002975 
0.003086 
0.003200 
0.003318 
0.003438 
0.003561 
0.003686 
0.003815 
0.003947 
0.004082 
0.004219 
0.004360 
0.004504 
0.004650 
0.004799 
0.004952 
0.005107 
0.005265 
0.005425 
0.005589 
0.005755 
0.005924 
0.006095 
0.006269 
0.006446 
0.006625 
0.006807 
0.006991 
0.007177 
0.007366 
0.007557 
0.007749 
0.007944 
0.008141 
0.008340 
0.008540 
0.008742 
0.008946 
0.009151 
0.009358 
0.009566 
0.009775 
0.009985 
0.010196 
0.010408 
0.010621 
0.010835 
0.011049 
0.011263 
0.011478 
0.011693 
0.011908 
0.012123 
0.012337 
0.012552 
0.012766 
0.012979 
0.013192 
0.013404 
0.013615 
0.013824 
0.014033 
0.014240 
0.014446 
0.014651 
0.014853 
0.015054 
0.015253 
0.015449 
0.015644 
0.015836 
0.016026 
0.016213 
0.016397 
0.016579 
0.016758 
0.016933 
0.017106 
0.017275 
0.017441 
0.017603 
0.017762 
0.017917 
0.018068 
0.018216 
0.018359 
0.018499 
0.018634 
0.018765 
0.018892 
0.019014 
0.019132 
0.019245 
0.019353 
0.019457 
0.019556 
0.019651 
0.019740 
0.019824 
0.019904 
0.019978 
0.020047 
0.020111 
0.020170 
0.020224 
0.020272 
0.020315 
0.020353 
0.020386 
0.020413 
0.020434 
0.020451 
0.020461 
0.020467 
0.000000 
0.000000 
0.000000 
0.000000 
0.000000 
0.000000 
0.000000 
0.000000 
0.000000 
0.000000 
0.000000 
0.000000 
0.000000 
0.000000 
0.000000 
0.000000 
0.000000 
0.000000 
0.000000 
0.000000 
0.000000 
0.000000 
0.000000 
0.000000 
0.000000 
0.000000 
0.000000 
0.000000 
0.000000 
0.000000 
0.000000 
0.000000 
0.000000 
0.000000 
0.000000 
0.000000 
0.000000 
0.000000 
0.000000 
0.000000 
0.000000 
0.000000 
0.000000 
0.000000 
0.000000 
0.000000 
0.000000 
0.000000 
0.000000 
0.000000 
0.000001 
0.000001 
0.000001 
0.000001 
0.000001 
0.000001 
0.000001 
0.000001 
0.000001 
0.000001 
0.000001 
0.000001 
0.000002 
0.000002 
0.000002 
0.000002 
0.000002 
0.000002 
0.000003 
0.000003 
0.000003 
0.000003 
0.000004 
0.000004 
0.000004 
0.000005 
0.000005 
0.000005 
0.000006 
0.000006 
0.000007 
0.000007 
0.000008 
0.000009 
0.000009 
0.000010 
0.000011 
0.000012 
0.000013 
0.000014 
0.000015 
0.000016 
0.000018 
0.000019 
0.000020 
0.000022 
0.000024 
0.000025 
0.000027 
0.000029 
0.000032 
0.000034 
0.000036 
0.000039 
0.000042 
0.000045 
0.000048 
0.000052 
0.000055 
0.000059 
0.000064 
0.000068 
0.000073 
0.000078 
0.000083 
0.000089 
0.000095 
0.000101 
0.000108 
0.000115 
0.000123 
0.000131 
0.000140 
0.000149 
0.000158 
0.000169 
0.000179 
0.000191 
0.000203 
0.000215 
0.000229 
0.000243 
0.000258 
0.000274 
0.000290 
0.000307 
0.000326 
0.000345 
0.000365 
0.000387 
0.000409 
0.000432 
0.000457 
0.000483 
0.000510 
0.000538 
0.000568 
0.000599 
0.000632 
0.000666 
0.000702 
0.000739 
0.000778 
0.000818 
0.000861 
0.000905 
0.000951 
0.000999 
0.001049 
0.001101 
0.001156 
0.001212 
0.001271 
0.001332 
0.001395 
0.001460 
0.001529 
0.001599 
0.001672 
0.001748 
0.001827 
0.001908 
0.001992 
0.002079 
0.002169 
0.002262 
0.002358 
0.002457 
0.002559 
0.002664 
0.002772 
0.002884 
0.002999 
0.003117 
0.003239 
0.003364 
0.003492 
0.003624 
0.003759 
0.003898 
0.004040 
0.004186 
0.004335 
0.004488 
0.004645 
0.004805 
0.004968 
0.005135 
0.005306 
0.005480 
0.005658 
0.005839 
0.006023 
0.006211 
0.006403 
0.006598 
0.006796 
0.006997 
0.007202 
0.007410 
0.007621 
0.007835 
0.008052 
0.008271 
0.008494 
0.008720 
0.008948 
0.009179 
0.009412 
0.009648 
0.009886 
0.010126 
0.010368 
0.010613 
0.010859 
0.011107 
0.011356 
0.011608 
0.011860 
0.012114 
0.012369 
0.012625 
0.012882 
0.013140 
0.013398 
0.013657 
0.013916 
0.014175 
0.014435 
0.014694 
0.014953 
0.015211 
0.015469 
0.015726 
0.015983 
0.016238 
0.016492 
0.016745 
0.016996 
0.017246 
0.017494 
0.017740 
0.017984 
0.018225 
0.018465 
0.018701 
0.018935 
0.019167 
0.019395 
0.019620 
0.019842 
0.020060 
0.020275 
0.020486 
0.020694 
0.020897 
0.021096 
0.021292 
0.021483 
0.021669 
0.021851 
0.022028 
0.022200 
0.022368 
0.022530 
0.022688 
0.022840 
0.022987 
0.023128 
0.023264 
0.023394 
0.023519 
0.023638 
0.023751 
0.023859 
0.023960 
0.024055 
0.024144 
0.024228 
0.024304 
0.024375 
0.024439 
0.024498 
0.024549 
0.024595 
0.024633 
0.024666 
0.024692 
0.024711 
0.024724 
0.024731 
0.000000 
0.000000 
0.000000 
0.000000 
0.000000 
0.000000 
0.000000 
0.000000 
0.000000 
0.000000 
0.000000 
0.000000 
0.000000 
0.000000 
0.000000 
0.000000 
0.000000 
0.000000 
0.000000 
0.000000 
0.000000 
0.000000 
0.000000 
0.000000 
0.000000 
0.000000 
0.000000 
0.000000 
0.000000 
0.000000 
0.000000 
0.000000 
0.000000 
0.000000 
0.000000 
0.000000 
0.000000 
0.000000 
0.000000 
0.000000 
0.000000 
0.000000 
0.000000 
0.000000 
0.000000 
0.000000 
0.000000 
0.000000 
0.000001 
0.000001 
0.000001 
0.000001 
0.000001 
0.000001 
0.000001 
0.000001 
0.000001 
0.000001 
0.000001 
0.000001 
0.000002 
0.000002 
0.000002 
0.000002 
0.000002 
0.000002 
0.000003 
0.000003 
0.000003 
0.000003 
0.000004 
0.000004 
0.000004 
0.000005 
0.000005 
0.000006 
0.000006 
0.000006 
0.000007 
0.000008 
0.000008 
0.000009 
0.000010 
0.000010 
0.000011 
0.000012 
0.000013 
0.000014 
0.000015 
0.000017 
0.000018 
0.000019 
0.000021 
0.000023 
0.000024 
0.000026 
0.000028 
0.000030 
0.000033 
0.000035 
0.000038 
0.000040 
0.000043 
0.000047 
0.000050 
0.000054 
0.000058 
0.000062 
0.000066 
0.000071 
0.000076 
0.000081 
0.000087 
0.000093 
0.000099 
0.000106 
0.000113 
0.000121 
0.000129 
0.000138 
0.000147 
0.000156 
0.000167 
0.000177 
0.000189 
0.000201 
0.000214 
0.000227 
0.000242 
0.000257 
0.000273 
0.000290 
0.000307 
0.000326 
0.000346 
0.000366 
0.000388 
0.000411 
0.000435 
0.000461 
0.000487 
0.000515 
0.000545 
0.000575 
0.000608 
0.000641 
0.000677 
0.000714 
0.000753 
0.000793 
0.000836 
0.000880 
0.000926 
0.000975 
0.001025 
0.001078 
0.001132 
0.001189 
0.001249 
0.001311 
0.001375 
0.001442 
0.001512 
0.001584 
0.001659 
0.001737 
0.001818 
0.001902 
0.001989 
0.002079 
0.002173 
0.002269 
0.002369 
0.002472 
0.002579 
0.002689 
0.002803 
0.002920 
0.003041 
0.003166 
0.003294 
0.003426 
0.003562 
0.003703 
0.003847 
0.003995 
0.004147 
0.004303 
0.004463 
0.004627 
0.004795 
0.004968 
0.005145 
0.005326 
0.005511 
0.005700 
0.005893 
0.006091 
0.006292 
0.006498 
0.006708 
0.006922 
0.007140 
0.007362 
0.007588 
0.007818 
0.008052 
0.008290 
0.008531 
0.008776 
0.009025 
0.009278 
0.009533 
0.009793 
0.010055 
0.010321 
0.010590 
0.010862 
0.011136 
0.011414 
0.011694 
0.011977 
0.012262 
0.012550 
0.012839 
0.013131 
0.013425 
0.013720 
0.014017 
0.014316 
0.014615 
0.014916 
0.015218 
0.015521 
0.015824 
0.016128 
0.016432 
0.016737 
0.017041 
0.017345 
0.017649 
0.017952 
0.018255 
0.018556 
0.018857 
0.019156 
0.019454 
0.019751 
0.020045 
0.020338 
0.020628 
0.020916 
0.021202 
0.021485 
0.021765 
0.022042 
0.022316 
0.022587 
0.022854 
0.023117 
0.023377 
0.023632 
0.023884 
0.024131 
0.024373 
0.024611 
0.024844 
0.025072 
0.025295 
0.025513 
0.025726 
0.025933 
0.026134 
0.026330 
0.026520 
0.026703 
0.026881 
0.027053 
0.027218 
0.027377 
0.027529 
0.027674 
0.027813 
0.027945 
0.028071 
0.028189 
0.028300 
0.028404 
0.028501 
0.028591 
0.028674 
0.028749 
0.028817 
0.028877 
0.028930 
0.028975 
0.029013 
0.029043 
0.029066 
0.029081 
0.029089 
0.000000 
0.000000 
0.000000 
0.000000 
0.000000 
0.000000 
0.000000 
0.000000 
0.000000 
0.000000 
0.000000 
0.000000 
0.000000 
0.000000 
0.000000 
0.000000 
0.000000 
0.000000 
0.000000 
0.000000 
0.000000 
0.000000 
0.000000 
0.000000 
0.000000 
0.000000 
0.000000 
0.000000 
0.000000 
0.000000 
0.000000 
0.000000 
0.000000 
0.000000 
0.000000 
0.000000 
0.000000 
0.000000 
0.000000 
0.000000 
0.000000 
0.000000 
0.000000 
0.000000 
0.000000 
0.000000 
0.000001 
0.000001 
0.000001 
0.000001 
0.000001 
0.000001 
0.000001 
0.000001 
0.000001 
0.000001 
0.000001 
0.000001 
0.000002 
0.000002 
0.000002 
0.000002 
0.000002 
0.000002 
0.000003 
0.000003 
0.000003 
0.000003 
0.000004 
0.000004 
0.000004 
0.000005 
0.000005 
0.000005 
0.000006 
0.000006 
0.000007 
0.000008 
0.000008 
0.000009 
0.000010 
0.000010 
0.000011 
0.000012 
0.000013 
0.000014 
0.000016 
0.000017 
0.000018 
0.000020 
0.000021 
0.000023 
0.000025 
0.000026 
0.000028 
0.000031 
0.000033 
0.000035 
0.000038 
0.000041 
0.000044 
0.000047 
0.000051 
0.000055 
0.000059 
0.000063 
0.000067 
0.000072 
0.000077 
0.000083 
0.000089 
0.000095 
0.000102 
0.000109 
0.000116 
0.000124 
0.000133 
0.000142 
0.000151 
0.000161 
0.000172 
0.000183 
0.000195 
0.000208 
0.000221 
0.000236 
0.000251 
0.000266 
0.000283 
0.000301 
0.000320 
0.000339 
0.000360 
0.000382 
0.000405 
0.000429 
0.000455 
0.000481 
0.000510 
0.000539 
0.000570 
0.000603 
0.000637 
0.000673 
0.000711 
0.000751 
0.000792 
0.000835 
0.000881 
0.000928 
0.000978 
0.001029 
0.001083 
0.001140 
0.001199 
0.001260 
0.001324 
0.001391 
0.001460 
0.001533 
0.001608 
0.001686 
0.001767 
0.001852 
0.001939 
0.002030 
0.002125 
0.002223 
0.002324 
0.002429 
0.002538 
0.002650 
0.002766 
0.002887 
0.003011 
0.003139 
0.003271 
0.003408 
0.003549 
0.003694 
0.003844 
0.003997 
0.004156 
0.004319 
0.004486 
0.004658 
0.004835 
0.005017 
0.005203 
0.005394 
0.005589 
0.005790 
0.005995 
0.006205 
0.006420 
0.006639 
0.006864 
0.007093 
0.007327 
0.007565 
0.007809 
0.008057 
0.008309 
0.008567 
0.008829 
0.009095 
0.009366 
0.009641 
0.009921 
0.010204 
0.010492 
0.010784 
0.011080 
0.011380 
0.011684 
0.011991 
0.012301 
0.012616 
0.012933 
0.013254 
0.013577 
0.013904 
0.014233 
0.014565 
0.014899 
0.015236 
0.015574 
0.015915 
0.016258 
0.016602 
0.016947 
0.017294 
0.017642 
0.017990 
0.018340 
0.018689 
0.019040 
0.019390 
0.019740 
0.020090 
0.020439 
0.020788 
0.021136 
0.021483 
0.021828 
0.022173 
0.022515 
0.022855 
0.023194 
0.023530 
0.023863 
0.024194 
0.024522 
0.024847 
0.025168 
0.025486 
0.025800 
0.026111 
0.026417 
0.026719 
0.027017 
0.027310 
0.027598 
0.027881 
0.028159 
0.028431 
0.028698 
0.028960 
0.029215 
0.029465 
0.029708 
0.029945 
0.030176 
0.030400 
0.030617 
0.030827 
0.031031 
0.031227 
0.031416 
0.031598 
0.031772 
0.031938 
0.032097 
0.032248 
0.032392 
0.032527 
0.032654 
0.032773 
0.032884 
0.032987 
0.033081 
0.033167 
0.033244 
0.033313 
0.033374 
0.033426 
0.033469 
0.033504 
0.033530 
0.033547 
0.033556 
0.000000 
0.000000 
0.000000 
0.000000 
0.000000 
0.000000 
0.000000 
0.000000 
0.000000 
0.000000 
0.000000 
0.000000 
0.000000 
0.000000 
0.000000 
0.000000 
0.000000 
0.000000 
0.000000 
0.000000 
0.000000 
0.000000 
0.000000 
0.000000 
0.000000 
0.000000 