# vtk DataFile Version 3.0
results.vtk
ASCII
DATASET RECTILINEAR_GRID
DIMENSIONS 301 301 1
X_COORDINATES 301 double
0.000000 0.003333 0.006667 0.010000 0.013333 0.016667 0.020000 0.023333 0.026667 0.030000 0.033333 0.036667 0.040000 0.043333 0.046667 0.050000 0.053333 0.056667 0.060000 0.063333 0.066667 0.070000 0.073333 0.076667 0.080000 0.083333 0.086667 0.090000 0.093333 0.096667 0.100000 0.103333 0.106667 0.110000 0.113333 0.116667 0.120000 0.123333 0.126667 0.130000 0.133333 0.136667 0.140000 0.143333 0.146667 0.150000 0.153333 0.156667 0.160000 0.163333 0.166667 0.170000 0.173333 0.176667 0.180000 0.183333 0.186667 0.190000 0.193333 0.196667 0.200000 0.203333 0.206667 0.210000 0.213333 0.216667 0.220000 0.223333 0.226667 0.230000 0.233333 0.236667 0.240000 0.243333 0.246667 0.250000 0.253333 0.256667 0.260000 0.263333 0.266667 0.270000 0.273333 0.276667 0.280000 0.283333 0.286667 0.290000 0.293333 0.296667 0.300000 0.303333 0.306667 0.310000 0.313333 0.316667 0.320000 0.323333 0.326667 0.330000 0.333333 0.336667 0.340000 0.343333 0.346667 0.350000 0.353333 0.356667 0.360000 0.363333 0.366667 0.370000 0.373333 0.376667 0.380000 0.383333 0.386667 0.390000 0.393333 0.396667 0.400000 0.403333 0.406667 0.410000 0.413333 0.416667 0.420000 0.423333 0.426667 0.430000 0.433333 0.436667 0.440000 0.443333 0.446667 0.450000 0.453333 0.456667 0.460000 0.463333 0.466667 0.470000 0.473333 0.476667 0.480000 0.483333 0.486667 0.490000 0.493333 0.496667 0.500000 0.503333 0.506667 0.510000 0.513333 0.516667 0.520000 0.523333 0.526667 0.530000 0.533333 0.536667 0.540000 0.543333 0.546667 0.550000 0.553333 0.556667 0.560000 0.563333 0.566667 0.570000 0.573333 0.576667 0.580000 0.583333 0.586667 0.590000 0.593333 0.596667 0.600000 0.603333 0.606667 0.610000 0.613333 0.616667 0.620000 0.623333 0.626667 0.630000 0.633333 0.636667 0.640000 0.643333 0.646667 0.650000 0.653333 0.656667 0.660000 0.663333 0.666667 0.670000 0.673333 0.676667 0.680000 0.683333 0.686667 0.690000 0.693333 0.696667 0.700000 0.703333 0.706667 0.710000 0.713333 0.716667 0.720000 0.723333 0.726667 0.730000 0.733333 0.736667 0.740000 0.743333 0.746667 0.750000 0.753333 0.756667 0.760000 0.763333 0.766667 0.770000 0.773333 0.776667 0.780000 0.783333 0.786667 0.790000 0.793333 0.796667 0.800000 0.803333 0.806667 0.810000 0.813333 0.816667 0.820000 0.823333 0.826667 0.830000 0.833333 0.836667 0.840000 0.843333 0.846667 0.850000 0.853333 0.856667 0.860000 0.863333 0.866667 0.870000 0.873333 0.876667 0.880000 0.883333 0.886667 0.890000 0.893333 0.896667 0.900000 0.903333 0.906667 0.910000 0.913333 0.916667 0.920000 0.923333 0.926667 0.930000 0.933333 0.936667 0.940000 0.943333 0.946667 0.950000 0.953333 0.956667 0.960000 0.963333 0.966667 0.970000 0.973333 0.976667 0.980000 0.983333 0.986667 0.990000 0.993333 0.996667 1.000000 
Y_COORDINATES 301 double
0.000000 0.003333 0.006667 0.010000 0.013333 0.016667 0.020000 0.023333 0.026667 0.030000 0.033333 0.036667 0.040000 0.043333 0.046667 0.050000 0.053333 0.056667 0.060000 0.063333 0.066667 0.070000 0.073333 0.076667 0.080000 0.083333 0.086667 0.090000 0.093333 0.096667 0.100000 0.103333 0.106667 0.110000 0.113333 0.116667 0.120000 0.123333 0.126667 0.130000 0.133333 0.136667 0.140000 0.143333 0.146667 0.150000 0.153333 0.156667 0.160000 0.163333 0.166667 0.170000 0.173333 0.176667 0.180000 0.183333 0.186667 0.190000 0.193333 0.196667 0.200000 0.203333 0.206667 0.210000 0.213333 0.216667 0.220000 0.223333 0.226667 0.230000 0.233333 0.236667 0.240000 0.243333 0.246667 0.250000 0.253333 0.256667 0.260000 0.263333 0.266667 0.270000 0.273333 0.276667 0.280000 0.283333 0.286667 0.290000 0.293333 0.296667 0.300000 0.303333 0.306667 0.310000 0.313333 0.316667 0.320000 0.323333 0.326667 0.330000 0.333333 0.336667 0.340000 0.343333 0.346667 0.350000 0.353333 0.356667 0.360000 0.363333 0.366667 0.370000 0.373333 0.376667 0.380000 0.383333 0.386667 0.390000 0.393333 0.396667 0.400000 0.403333 0.406667 0.410000 0.413333 0.416667 0.420000 0.423333 0.426667 0.430000 0.433333 0.436667 0.440000 0.443333 0.446667 0.450000 0.453333 0.456667 0.460000 0.463333 0.466667 0.470000 0.473333 0.476667 0.480000 0.483333 0.486667 0.490000 0.493333 0.496667 0.500000 0.503333 0.506667 0.510000 0.513333 0.516667 0.520000 0.523333 0.526667 0.530000 0.533333 0.536667 0.540000 0.543333 0.546667 0.550000 0.553333 0.556667 0.560000 0.563333 0.566667 0.570000 0.573333 0.576667 0.580000 0.583333 0.586667 0.590000 0.593333 0.596667 0.600000 0.603333 0.606667 0.610000 0.613333 0.616667 0.620000 0.623333 0.626667 0.630000 0.633333 0.636667 0.640000 0.643333 0.646667 0.650000 0.653333 0.656667 0.660000 0.663333 0.666667 0.670000 0.673333 0.676667 0.680000 0.683333 0.686667 0.690000 0.693333 0.696667 0.700000 0.703333 0.706667 0.710000 0.713333 0.716667 0.720000 0.723333 0.726667 0.730000 0.733333 0.736667 0.740000 0.743333 0.746667 0.750000 0.753333 0.756667 0.760000 0.763333 0.766667 0.770000 0.773333 0.776667 0.780000 0.783333 0.786667 0.790000 0.793333 0.796667 0.800000 0.803333 0.806667 0.810000 0.813333 0.816667 0.820000 0.823333 0.826667 0.830000 0.833333 0.836667 0.840000 0.843333 0.846667 0.850000 0.853333 0.856667 0.860000 0.863333 0.866667 0.870000 0.873333 0.876667 0.880000 0.883333 0.886667 0.890000 0.893333 0.896667 0.900000 0.903333 0.906667 0.910000 0.913333 0.916667 0.920000 0.923333 0.926667 0.930000 0.933333 0.936667 0.940000 0.943333 0.946667 0.950000 0.953333 0.956667 0.960000 0.963333 0.966667 0.970000 0.973333 0.976667 0.980000 0.983333 0.986667 0.990000 0.993333 0.996667 1.000000 
Z_COORDINATES 1 double
0
POINT_DATA 90601 
FIELD FieldData 1 
Concentração 1 90601 double 
0.000000 
0.000000 
0.000000 
0.000000 
0.000000 
0.000000 
0.000000 
0.000000 
0.000000 
0.000000 
0.000000 
0.000000 
0.000000 
0.000000 
0.000000 
0.000000 
0.000000 
0.000000 
0.000000 
0.000000 
0.000000 
0.000000 
0.000000 
0.000000 
0.000000 
0.000000 
0.000000 
0.000000 
0.000000 
0.000000 
0.000000 
0.000000 
0.000000 
0.000000 
0.000000 
0.000000 
0.000000 
0.000000 
0.000000 
0.000000 
0.000000 
0.000000 
0.000000 
0.000000 
0.000000 
0.000000 
0.000000 
0.000000 
0.000000 
0.000000 
0.000000 
0.000000 
0.000000 
0.000000 
0.000000 
0.000000 
0.000000 
0.000000 
0.000000 
0.000000 
0.000000 
0.000000 
0.000000 
0.000000 
0.000000 
0.000000 
0.000000 
0.000000 
0.000000 
0.000000 
0.000000 
0.000000 
0.000000 
0.000000 
0.000000 
0.000000 
0.000000 
0.000000 
0.000000 
0.000000 
0.000000 
0.000000 
0.000000 
0.000000 
0.000000 
0.000000 
0.000000 
0.000000 
0.000000 
0.000000 
0.000000 
0.000000 
0.000000 
0.000000 
0.000000 
0.000000 
0.000000 
0.000000 
0.000000 
0.000000 
0.000000 
0.000000 
0.000000 
0.000000 
0.000000 
0.000000 
0.000000 
0.000000 
0.000000 
0.000000 
0.000000 
0.000000 
0.000000 
0.000000 
0.000000 
0.000000 
0.000000 
0.000000 
0.000000 
0.000001 
0.000001 
0.000001 
0.000001 
0.000001 
0.000001 
0.000001 
0.000001 
0.000001 
0.000001 
0.000001 
0.000001 
0.000001 
0.000001 
0.000001 
0.000001 
0.000001 
0.000002 
0.000002 
0.000002 
0.000002 
0.000002 
0.000002 
0.000002 
0.000002 
0.000003 
0.000003 
0.000003 
0.000003 
0.000003 
0.000004 
0.000004 
0.000004 
0.000004 
0.000004 
0.000005 
0.000005 
0.000005 
0.000006 
0.000006 
0.000006 
0.000007 
0.000007 
0.000007 
0.000008 
0.000008 
0.000009 
0.000009 
0.000010 
0.000010 
0.000011 
0.000011 
0.000012 
0.000012 
0.000013 
0.000014 
0.000014 
0.000015 
0.000016 
0.000017 
0.000017 
0.000018 
0.000019 
0.000020 
0.000021 
0.000022 
0.000023 
0.000024 
0.000025 
0.000026 
0.000027 
0.000028 
0.000030 
0.000031 
0.000032 
0.000034 
0.000035 
0.000036 
0.000038 
0.000039 
0.000041 
0.000043 
0.000044 
0.000046 
0.000048 
0.000049 
0.000051 
0.000053 
0.000055 
0.000057 
0.000059 
0.000061 
0.000063 
0.000065 
0.000068 
0.000070 
0.000072 
0.000075 
0.000077 
0.000080 
0.000082 
0.000085 
0.000087 
0.000090 
0.000092 
0.000095 
0.000098 
0.000101 
0.000104 
0.000106 
0.000109 
0.000112 
0.000115 
0.000118 
0.000121 
0.000125 
0.000128 
0.000131 
0.000134 
0.000137 
0.000140 
0.000144 
0.000147 
0.000150 
0.000153 
0.000157 
0.000160 
0.000163 
0.000167 
0.000170 
0.000173 
0.000177 
0.000180 
0.000183 
0.000186 
0.000190 
0.000193 
0.000196 
0.000199 
0.000203 
0.000206 
0.000209 
0.000212 
0.000215 
0.000218 
0.000221 
0.000224 
0.000227 
0.000230 
0.000233 
0.000235 
0.000238 
0.000241 
0.000243 
0.000246 
0.000248 
0.000251 
0.000253 
0.000255 
0.000257 
0.000260 
0.000262 
0.000263 
0.000265 
0.000267 
0.000269 
0.000270 
0.000272 
0.000273 
0.000275 
0.000276 
0.000277 
0.000278 
0.000279 
0.000280 
0.000280 
0.000281 
0.000281 
0.000282 
0.000282 
0.000282 
0.000282 
0.000000 
0.000000 
0.000000 
0.000000 
0.000000 
0.000000 
0.000000 
0.000000 
0.000000 
0.000000 
0.000000 
0.000000 
0.000000 
0.000000 
0.000000 
0.000000 
0.000000 
0.000000 
0.000000 
0.000000 
0.000000 
0.000000 
0.000000 
0.000000 
0.000000 
0.000000 
0.000000 
0.000000 
0.000000 
0.000000 
0.000000 
0.000000 
0.000000 
0.000000 
0.000000 
0.000000 
0.000000 
0.000000 
0.000000 
0.000000 
0.000000 
0.000000 
0.000000 
0.000000 
0.000000 
0.000000 
0.000000 
0.000000 
0.000000 
0.000000 
0.000000 
0.000000 
0.000000 
0.000000 
0.000000 
0.000000 
0.000000 
0.000000 
0.000000 
0.000000 
0.000000 
0.000000 
0.000000 
0.000000 
0.000000 
0.000000 
0.000000 
0.000000 
0.000000 
0.000000 
0.000000 
0.000000 
0.000000 
0.000000 
0.000000 
0.000000 
0.000000 
0.000000 
0.000000 
0.000000 
0.000000 
0.000000 
0.000000 
0.000000 
0.000000 
0.000000 
0.000000 
0.000000 
0.000000 
0.000000 
0.000000 
0.000000 
0.000000 
0.000000 
0.000000 
0.000000 
0.000000 
0.000000 
0.000000 
0.000000 
0.000000 
0.000000 
0.000000 
0.000000 
0.000000 
0.000000 
0.000000 
0.000000 
0.000000 
0.000000 
0.000001 
0.000001 
0.000001 
0.000001 
0.000001 
0.000001 
0.000001 
0.000001 
0.000001 
0.000001 
0.000001 
0.000001 
0.000001 
0.000001 
0.000001 
0.000002 
0.000002 
0.000002 
0.000002 
0.000002 
0.000002 
0.000002 
0.000002 
0.000003 
0.000003 
0.000003 
0.000003 
0.000003 
0.000004 
0.000004 
0.000004 
0.000004 
0.000005 
0.000005 
0.000005 
0.000006 
0.000006 
0.000006 
0.000007 
0.000007 
0.000008 
0.000008 
0.000009 
0.000009 
0.000010 
0.000010 
0.000011 
0.000011 
0.000012 
0.000013 
0.000013 
0.000014 
0.000015 
0.000016 
0.000017 
0.000017 
0.000018 
0.000019 
0.000020 
0.000021 
0.000023 
0.000024 
0.000025 
0.000026 
0.000028 
0.000029 
0.000030 
0.000032 
0.000033 
0.000035 
0.000037 
0.000038 
0.000040 
0.000042 
0.000044 
0.000046 
0.000048 
0.000050 
0.000052 
0.000055 
0.000057 
0.000060 
0.000062 
0.000065 
0.000068 
0.000070 
0.000073 
0.000076 
0.000079 
0.000082 
0.000086 
0.000089 
0.000092 
0.000096 
0.000099 
0.000103 
0.000107 
0.000111 
0.000115 
0.000119 
0.000123 
0.000127 
0.000132 
0.000136 
0.000141 
0.000145 
0.000150 
0.000155 
0.000160 
0.000165 
0.000170 
0.000175 
0.000181 
0.000186 
0.000192 
0.000197 
0.000203 
0.000208 
0.000214 
0.000220 
0.000226 
0.000232 
0.000238 
0.000244 
0.000251 
0.000257 
0.000263 
0.000269 
0.000276 
0.000282 
0.000289 
0.000295 
0.000302 
0.000309 
0.000315 
0.000322 
0.000328 
0.000335 
0.000342 
0.000348 
0.000355 
0.000362 
0.000368 
0.000375 
0.000382 
0.000388 
0.000395 
0.000401 
0.000408 
0.000414 
0.000420 
0.000427 
0.000433 
0.000439 
0.000445 
0.000451 
0.000457 
0.000462 
0.000468 
0.000474 
0.000479 
0.000484 
0.000490 
0.000495 
0.000500 
0.000504 
0.000509 
0.000513 
0.000518 
0.000522 
0.000526 
0.000530 
0.000534 
0.000537 
0.000541 
0.000544 
0.000547 
0.000550 
0.000552 
0.000555 
0.000557 
0.000559 
0.000561 
0.000562 
0.000564 
0.000565 
0.000566 
0.000567 
0.000568 
0.000568 
0.000568 
0.000000 
0.000000 
0.000000 
0.000000 
0.000000 
0.000000 
0.000000 
0.000000 
0.000000 
0.000000 
0.000000 
0.000000 
0.000000 
0.000000 
0.000000 
0.000000 
0.000000 
0.000000 
0.000000 
0.000000 
0.000000 
0.000000 
0.000000 
0.000000 
0.000000 
0.000000 
0.000000 
0.000000 
0.000000 
0.000000 
0.000000 
0.000000 
0.000000 
0.000000 
0.000000 
0.000000 
0.000000 
0.000000 
0.000000 
0.000000 
0.000000 
0.000000 
0.000000 
0.000000 
0.000000 
0.000000 
0.000000 
0.000000 
0.000000 
0.000000 
0.000000 
0.000000 
0.000000 
0.000000 
0.000000 
0.000000 
0.000000 
0.000000 
0.000000 
0.000000 
0.000000 
0.000000 
0.000000 
0.000000 
0.000000 
0.000000 
0.000000 
0.000000 
0.000000 
0.000000 
0.000000 
0.000000 
0.000000 
0.000000 
0.000000 
0.000000 
0.000000 
0.000000 
0.000000 
0.000000 
0.000000 
0.000000 
0.000000 
0.000000 
0.000000 
0.000000 
0.000000 
0.000000 
0.000000 
0.000000 
0.000000 
0.000000 
0.000000 
0.000000 
0.000000 
0.000000 
0.000000 
0.000000 
0.000000 
0.000000 
0.000000 
0.000000 
0.000000 
0.000000 
0.000001 
0.000001 
0.000001 
0.000001 
0.000001 
0.000001 
0.000001 
0.000001 
0.000001 
0.000001 
0.000001 
0.000001 
0.000001 
0.000001 
0.000001 
0.000002 
0.000002 
0.000002 
0.000002 
0.000002 
0.000002 
0.000002 
0.000003 
0.000003 
0.000003 
0.000003 
0.000003 
0.000004 
0.000004 
0.000004 
0.000004 
0.000005 
0.000005 
0.000005 
0.000006 
0.000006 
0.000006 
0.000007 
0.000007 
0.000008 
0.000008 
0.000009 
0.000009 
0.000010 
0.000010 
0.000011 
0.000012 
0.000012 
0.000013 
0.000014 
0.000014 
0.000015 
0.000016 
0.000017 
0.000018 
0.000019 
0.000020 
0.000021 
0.000023 
0.000024 
0.000025 
0.000026 
0.000028 
0.000029 
0.000031 
0.000033 
0.000034 
0.000036 
0.000038 
0.000040 
0.000042 
0.000044 
0.000046 
0.000048 
0.000051 
0.000053 
0.000056 
0.000058 
0.000061 
0.000064 
0.000067 
0.000070 
0.000073 
0.000076 
0.000080 
0.000083 
0.000087 
0.000090 
0.000094 
0.000098 
0.000102 
0.000107 
0.000111 
0.000115 
0.000120 
0.000125 
0.000130 
0.000135 
0.000140 
0.000145 
0.000151 
0.000156 
0.000162 
0.000168 
0.000174 
0.000180 
0.000187 
0.000193 
0.000200 
0.000206 
0.000213 
0.000220 
0.000228 
0.000235 
0.000242 
0.000250 
0.000258 
0.000266 
0.000274 
0.000282 
0.000290 
0.000299 
0.000307 
0.000316 
0.000325 
0.000333 
0.000342 
0.000352 
0.000361 
0.000370 
0.000379 
0.000389 
0.000399 
0.000408 
0.000418 
0.000428 
0.000438 
0.000447 
0.000457 
0.000467 
0.000477 
0.000487 
0.000497 
0.000508 
0.000518 
0.000528 
0.000538 
0.000548 
0.000558 
0.000568 
0.000578 
0.000588 
0.000598 
0.000607 
0.000617 
0.000627 
0.000636 
0.000646 
0.000655 
0.000665 
0.000674 
0.000683 
0.000691 
0.000700 
0.000709 
0.000717 
0.000725 
0.000733 
0.000741 
0.000749 
0.000756 
0.000764 
0.000771 
0.000777 
0.000784 
0.000790 
0.000797 
0.000802 
0.000808 
0.000813 
0.000818 
0.000823 
0.000828 
0.000832 
0.000836 
0.000840 
0.000843 
0.000846 
0.000849 
0.000851 
0.000854 
0.000855 
0.000857 
0.000858 
0.000859 
0.000860 
0.000860 
0.000000 
0.000000 
0.000000 
0.000000 
0.000000 
0.000000 
0.000000 
0.000000 
0.000000 
0.000000 
0.000000 
0.000000 
0.000000 
0.000000 
0.000000 
0.000000 
0.000000 
0.000000 
0.000000 
0.000000 
0.000000 
0.000000 
0.000000 
0.000000 
0.000000 
0.000000 
0.000000 
0.000000 
0.000000 
0.000000 
0.000000 
0.000000 
0.000000 
0.000000 
0.000000 
0.000000 
0.000000 
0.000000 
0.000000 
0.000000 
0.000000 
0.000000 
0.000000 
0.000000 
0.000000 
0.000000 
0.000000 
0.000000 
0.000000 
0.000000 
0.000000 
0.000000 
0.000000 
0.000000 
0.000000 
0.000000 
0.000000 
0.000000 
0.000000 
0.000000 
0.000000 
0.000000 
0.000000 
0.000000 
0.000000 
0.000000 
0.000000 
0.000000 
0.000000 
0.000000 
0.000000 
0.000000 
0.000000 
0.000000 
0.000000 
0.000000 
0.000000 
0.000000 
0.000000 
0.000000 
0.000000 
0.000000 
0.000000 
0.000000 
0.000000 
0.000000 
0.000000 
0.000000 
0.000000 
0.000000 
0.000000 
0.000000 
0.000000 
0.000000 
0.000000 
0.000000 
0.000000 
0.000000 
0.000000 
0.000000 
0.000000 
0.000001 
0.000001 
0.000001 
0.000001 
0.000001 
0.000001 
0.000001 
0.000001 
0.000001 
0.000001 
0.000001 
0.000001 
0.000001 
0.000001 
0.000002 
0.000002 
0.000002 
0.000002 
0.000002 
0.000002 
0.000002 
0.000003 
0.000003 
0.000003 
0.000003 
0.000003 
0.000004 
0.000004 
0.000004 
0.000004 
0.000005 
0.000005 
0.000005 
0.000006 
0.000006 
0.000007 
0.000007 
0.000007 
0.000008 
0.000008 
0.000009 
0.000010 
0.000010 
0.000011 
0.000012 
0.000012 
0.000013 
0.000014 
0.000015 
0.000016 
0.000017 
0.000017 
0.000019 
0.000020 
0.000021 
0.000022 
0.000023 
0.000025 
0.000026 
0.000027 
0.000029 
0.000031 
0.000032 
0.000034 
0.000036 
0.000038 
0.000040 
0.000042 
0.000044 
0.000046 
0.000049 
0.000051 
0.000054 
0.000057 
0.000059 
0.000062 
0.000065 
0.000069 
0.000072 
0.000075 
0.000079 
0.000082 
0.000086 
0.000090 
0.000094 
0.000099 
0.000103 
0.000108 
0.000112 
0.000117 
0.000122 
0.000128 
0.000133 
0.000138 
0.000144 
0.000150 
0.000156 
0.000162 
0.000169 
0.000175 
0.000182 
0.000189 
0.000197 
0.000204 
0.000211 
0.000219 
0.000227 
0.000235 
0.000244 
0.000252 
0.000261 
0.000270 
0.000279 
0.000289 
0.000298 
0.000308 
0.000318 
0.000328 
0.000338 
0.000349 
0.000359 
0.000370 
0.000381 
0.000392 
0.000404 
0.000415 
0.000427 
0.000439 
0.000451 
0.000463 
0.000475 
0.000488 
0.000500 
0.000513 
0.000526 
0.000539 
0.000552 
0.000565 
0.000578 
0.000591 
0.000605 
0.000618 
0.000632 
0.000645 
0.000659 
0.000672 
0.000686 
0.000700 
0.000713 
0.000727 
0.000740 
0.000754 
0.000767 
0.000781 
0.000794 
0.000808 
0.000821 
0.000834 
0.000847 
0.000860 
0.000873 
0.000885 
0.000898 
0.000910 
0.000922 
0.000934 
0.000946 
0.000958 
0.000969 
0.000980 
0.000991 
0.001001 
0.001012 
0.001022 
0.001032 
0.001041 
0.001050 
0.001059 
0.001068 
0.001076 
0.001084 
0.001091 
0.001099 
0.001106 
0.001112 
0.001118 
0.001124 
0.001129 
0.001134 
0.001139 
0.001143 
0.001147 
0.001150 
0.001153 
0.001156 
0.001158 
0.001159 
0.001161 
0.001161 
0.001162 
0.000000 
0.000000 
0.000000 
0.000000 
0.000000 
0.000000 
0.000000 
0.000000 
0.000000 
0.000000 
0.000000 
0.000000 
0.000000 
0.000000 
0.000000 
0.000000 
0.000000 
0.000000 
0.000000 
0.000000 
0.000000 
0.000000 
0.000000 
0.000000 
0.000000 
0.000000 
0.000000 
0.000000 
0.000000 
0.000000 
0.000000 
0.000000 
0.000000 
0.000000 
0.000000 
0.000000 
0.000000 
0.000000 
0.000000 
0.000000 
0.000000 
0.000000 
0.000000 
0.000000 
0.000000 
0.000000 
0.000000 
0.000000 
0.000000 
0.000000 
0.000000 
0.000000 
0.000000 
0.000000 
0.000000 
0.000000 
0.000000 
0.000000 
0.000000 
0.000000 
0.000000 
0.000000 
0.000000 
0.000000 
0.000000 
0.000000 
0.000000 
0.000000 
0.000000 
0.000000 
0.000000 
0.000000 
0.000000 
0.000000 
0.000000 
0.000000 
0.000000 
0.000000 
0.000000 
0.000000 
0.000000 
0.000000 
0.000000 
0.000000 
0.000000 
0.000000 
0.000000 
0.000000 
0.000000 
0.000000 
0.000000 
0.000000 
0.000000 
0.000000 
0.000000 
0.000000 
0.000000 
0.000000 
0.000001 
0.000001 
0.000001 
0.000001 
0.000001 
0.000001 
0.000001 
0.000001 
0.000001 
0.000001 
0.000001 
0.000001 
0.000001 
0.000001 
0.000002 
0.000002 
0.000002 
0.000002 
0.000002 
0.000002 
0.000002 
0.000003 
0.000003 
0.000003 
0.000003 
0.000004 
0.000004 
0.000004 
0.000004 
0.000005 
0.000005 
0.000005 
0.000006 
0.000006 
0.000006 
0.000007 
0.000007 
0.000008 
0.000008 
0.000009 
0.000010 
0.000010 
0.000011 
0.000012 
0.000012 
0.000013 
0.000014 
0.000015 
0.000016 
0.000017 
0.000018 
0.000019 
0.000020 
0.000021 
0.000022 
0.000024 
0.000025 
0.000026 
0.000028 
0.000030 
0.000031 
0.000033 
0.000035 
0.000037 
0.000039 
0.000041 
0.000043 
0.000046 
0.000048 
0.000051 
0.000053 
0.000056 
0.000059 
0.000062 
0.000065 
0.000069 
0.000072 
0.000076 
0.000079 
0.000083 
0.000087 
0.000091 
0.000096 
0.000100 
0.000105 
0.000110 
0.000115 
0.000120 
0.000126 
0.000131 
0.000137 
0.000143 
0.000149 
0.000156 
0.000162 
0.000169 
0.000176 
0.000184 
0.000191 
0.000199 
0.000207 
0.000215 
0.000223 
0.000232 
0.000241 
0.000250 
0.000260 
0.000269 
0.000279 
0.000289 
0.000300 
0.000310 
0.000321 
0.000332 
0.000344 
0.000355 
0.000367 
0.000379 
0.000392 
0.000404 
0.000417 
0.000430 
0.000444 
0.000457 
0.000471 
0.000485 
0.000499 
0.000514 
0.000528 
0.000543 
0.000558 
0.000574 
0.000589 
0.000605 
0.000620 
0.000636 
0.000653 
0.000669 
0.000685 
0.000702 
0.000718 
0.000735 
0.000752 
0.000769 
0.000786 
0.000803 
0.000820 
0.000838 
0.000855 
0.000872 
0.000890 
0.000907 
0.000924 
0.000941 
0.000959 
0.000976 
0.000993 
0.001010 
0.001027 
0.001044 
0.001060 
0.001077 
0.001093 
0.001109 
0.001126 
0.001141 
0.001157 
0.001172 
0.001188 
0.001202 
0.001217 
0.001232 
0.001246 
0.001259 
0.001273 
0.001286 
0.001299 
0.001311 
0.001323 
0.001335 
0.001346 
0.001357 
0.001368 
0.001378 
0.001387 
0.001396 
0.001405 
0.001413 
0.001421 
0.001428 
0.001435 
0.001441 
0.001447 
0.001452 
0.001457 
0.001462 
0.001465 
0.001468 
0.001471 
0.001473 
0.001475 
0.001476 
0.001477 
0.000000 
0.000000 
0.000000 
0.000000 
0.000000 
0.000000 
0.000000 
0.000000 
0.000000 
0.000000 
0.000000 
0.000000 
0.000000 
0.000000 
0.000000 
0.000000 
0.000000 
0.000000 
0.000000 
0.000000 
0.000000 
0.000000 
0.000000 
0.000000 
0.000000 
0.000000 
0.000000 
0.000000 
0.000000 
0.000000 
0.000000 
0.000000 
0.000000 
0.000000 
0.000000 
0.000000 
0.000000 
0.000000 
0.000000 
0.000000 
0.000000 
0.000000 
0.000000 
0.000000 
0.000000 
0.000000 
0.000000 
0.000000 
0.000000 
0.000000 
0.000000 
0.000000 
0.000000 
0.000000 
0.000000 
0.000000 
0.000000 
0.000000 
0.000000 
0.000000 
0.000000 
0.000000 
0.000000 
0.000000 
0.000000 
0.000000 
0.000000 
0.000000 
0.000000 
0.000000 
0.000000 
0.000000 
0.000000 
0.000000 
0.000000 
0.000000 
0.000000 
0.000000 
0.000000 
0.000000 
0.000000 
0.000000 
0.000000 
0.000000 
0.000000 
0.000000 
0.000000 
0.000000 
0.000000 
0.000000 
0.000000 
0.000000 
0.000000 
0.000000 
0.000000 
0.000001 
0.000001 
0.000001 
0.000001 
0.000001 
0.000001 
0.000001 
0.000001 
0.000001 
0.000001 
0.000001 
0.000001 
0.000001 
0.000001 
0.000002 
0.000002 
0.000002 
0.000002 
0.000002 
0.000002 
0.000002 
0.000003 
0.000003 
0.000003 
0.000003 
0.000003 
0.000004 
0.000004 
0.000004 
0.000005 
0.000005 
0.000005 
0.000006 
0.000006 
0.000006 
0.000007 
0.000007 
0.000008 
0.000008 
0.000009 
0.000010 
0.000010 
0.000011 
0.000012 
0.000012 
0.000013 
0.000014 
0.000015 
0.000016 
0.000017 
0.000018 
0.000019 
0.000020 
0.000022 
0.000023 
0.000024 
0.000026 
0.000027 
0.000029 
0.000031 
0.000032 
0.000034 
0.000036 
0.000038 
0.000041 
0.000043 
0.000045 
0.000048 
0.000050 
0.000053 
0.000056 
0.000059 
0.000062 
0.000065 
0.000069 
0.000072 
0.000076 
0.000080 
0.000084 
0.000088 
0.000093 
0.000097 
0.000102 
0.000107 
0.000112 
0.000118 
0.000123 
0.000129 
0.000135 
0.000141 
0.000148 
0.000154 
0.000161 
0.000168 
0.000176 
0.000183 
0.000191 
0.000199 
0.000208 
0.000216 
0.000225 
0.000234 
0.000244 
0.000254 
0.000264 
0.000274 
0.000285 
0.000296 
0.000307 
0.000318 
0.000330 
0.000342 
0.000355 
0.000367 
0.000381 
0.000394 
0.000408 
0.000421 
0.000436 
0.000450 
0.000465 
0.000480 
0.000496 
0.000511 
0.000528 
0.000544 
0.000560 
0.000577 
0.000595 
0.000612 
0.000630 
0.000648 
0.000666 
0.000684 
0.000703 
0.000722 
0.000741 
0.000760 
0.000780 
0.000800 
0.000820 
0.000840 
0.000860 
0.000880 
0.000901 
0.000922 
0.000942 
0.000963 
0.000984 
0.001005 
0.001026 
0.001048 
0.001069 
0.001090 
0.001111 
0.001132 
0.001153 
0.001174 
0.001195 
0.001216 
0.001237 
0.001258 
0.001278 
0.001299 
0.001319 
0.001339 
0.001359 
0.001378 
0.001398 
0.001417 
0.001436 
0.001454 
0.001473 
0.001491 
0.001508 
0.001525 
0.001542 
0.001559 
0.001575 
0.001590 
0.001605 
0.001620 
0.001634 
0.001648 
0.001662 
0.001674 
0.001687 
0.001698 
0.001710 
0.001720 
0.001730 
0.001740 
0.001749 
0.001757 
0.001765 
0.001772 
0.001778 
0.001784 
0.001789 
0.001794 
0.001798 
0.001801 
0.001804 
0.001806 
0.001807 
0.001808 
0.000000 
0.000000 
0.000000 
0.000000 
0.000000 
0.000000 
0.000000 
0.000000 
0.000000 
0.000000 
0.000000 
0.000000 
0.000000 
0.000000 
0.000000 
0.000000 
0.000000 
0.000000 
0.000000 
0.000000 
0.000000 
0.000000 
0.000000 
0.000000 
0.000000 
0.000000 
0.000000 
0.000000 
0.000000 
0.000000 
0.000000 
0.000000 
0.000000 
0.000000 
0.000000 
0.000000 
0.000000 
0.000000 
0.000000 
0.000000 
0.000000 
0.000000 
0.000000 
0.000000 
0.000000 
0.000000 
0.000000 
0.000000 
0.000000 
0.000000 
0.000000 
0.000000 
0.000000 
0.000000 
0.000000 
0.000000 
0.000000 
0.000000 
0.000000 
0.000000 
0.000000 
0.000000 
0.000000 
0.000000 
0.000000 
0.000000 
0.000000 
0.000000 
0.000000 
0.000000 
0.000000 
0.000000 
0.000000 
0.000000 
0.000000 
0.000000 
0.000000 
0.000000 
0.000000 
0.000000 
0.000000 
0.000000 
0.000000 
0.000000 
0.000000 
0.000000 
0.000000 
0.000000 
0.000000 
0.000000 
0.000000 
0.000000 
0.000000 
0.000001 
0.000001 
0.000001 
0.000001 
0.000001 
0.000001 
0.000001 
0.000001 
0.000001 
0.000001 
0.000001 
0.000001 
0.000001 
0.000001 
0.000002 
0.000002 
0.000002 
0.000002 
0.000002 
0.000002 
0.000003 
0.000003 
0.000003 
0.000003 
0.000003 
0.000004 
0.000004 
0.000004 
0.000004 
0.000005 
0.000005 
0.000006 
0.000006 
0.000006 
0.000007 
0.000007 
0.000008 
0.000008 
0.000009 
0.000010 
0.000010 
0.000011 
0.000012 
0.000012 
0.000013 
0.000014 
0.000015 
0.000016 
0.000017 
0.000018 
0.000019 
0.000020 
0.000022 
0.000023 
0.000024 
0.000026 
0.000028 
0.000029 
0.000031 
0.000033 
0.000035 
0.000037 
0.000039 
0.000041 
0.000044 
0.000046 
0.000049 
0.000051 
0.000054 
0.000057 
0.000060 
0.000064 
0.000067 
0.000071 
0.000074 
0.000078 
0.000083 
0.000087 
0.000091 
0.000096 
0.000101 
0.000106 
0.000111 
0.000117 
0.000122 
0.000128 
0.000134 
0.000141 
0.000147 
0.000154 
0.000162 
0.000169 
0.000177 
0.000185 
0.000193 
0.000201 
0.000210 
0.000219 
0.000229 
0.000239 
0.000249 
0.000259 
0.000270 
0.000281 
0.000292 
0.000304 
0.000316 
0.000328 
0.000341 
0.000354 
0.000367 
0.000381 
0.000395 
0.000410 
0.000425 
0.000440 
0.000455 
0.000471 
0.000488 
0.000504 
0.000521 
0.000539 
0.000557 
0.000575 
0.000593 
0.000612 
0.000631 
0.000651 
0.000671 
0.000691 
0.000711 
0.000732 
0.000753 
0.000775 
0.000796 
0.000818 
0.000841 
0.000863 
0.000886 
0.000909 
0.000933 
0.000956 
0.000980 
0.001004 
0.001028 
0.001053 
0.001077 
0.001102 
0.001127 
0.001152 
0.001177 
0.001202 
0.001227 
0.001252 
0.001277 
0.001303 
0.001328 
0.001353 
0.001378 
0.001404 
0.001429 
0.001454 
0.001478 
0.001503 
0.001528 
0.001552 
0.001576 
0.001600 
0.001624 
0.001647 
0.001670 
0.001693 
0.001715 
0.001737 
0.001759 
0.001781 
0.001802 
0.001822 
0.001842 
0.001862 
0.001881 
0.001900 
0.001918 
0.001935 
0.001952 
0.001969 
0.001985 
0.002000 
0.002014 
0.002028 
0.002042 
0.002054 
0.002066 
0.002078 
0.002088 
0.002098 
0.002107 
0.002116 
0.002123 
0.002130 
0.002137 
0.002142 
0.002147 
0.002151 
0.002154 
0.002156 
0.002158 
0.002158 
0.000000 
0.000000 
0.000000 
0.000000 
0.000000 
0.000000 
0.000000 
0.000000 
0.000000 
0.000000 
0.000000 
0.000000 
0.000000 
0.000000 
0.000000 
0.000000 
0.000000 
0.000000 
0.000000 
0.000000 
0.000000 
0.000000 
0.000000 
0.000000 
0.000000 
0.000000 
0.000000 
0.000000 
0.000000 
0.000000 
0.000000 
0.000000 
0.000000 
0.000000 
0.000000 
0.000000 
0.000000 
0.000000 
0.000000 
0.000000 
0.000000 
0.000000 
0.000000 
0.000000 
0.000000 
0.000000 
0.000000 
0.000000 
0.000000 
0.000000 
0.000000 
0.000000 
0.000000 
0.000000 
0.000000 
0.000000 
0.000000 
0.000000 
0.000000 
0.000000 
0.000000 
0.000000 
0.000000 
0.000000 
0.000000 
0.000000 
0.000000 
0.000000 
0.000000 
0.000000 
0.000000 
0.000000 
0.000000 
0.000000 
0.000000 
0.000000 
0.000000 
0.000000 
0.000000 
0.000000 
0.000000 
0.000000 
0.000000 
0.000000 
0.000000 
0.000000 
0.000000 
0.000000 
0.000000 
0.000000 
0.000000 
0.000001 
0.000001 
0.000001 
0.000001 
0.000001 
0.000001 
0.000001 
0.000001 
0.000001 
0.000001 
0.000001 
0.000001 
0.000001 
0.000002 
0.000002 
0.000002 
0.000002 
0.000002 
0.000002 
0.000002 
0.000003 
0.000003 
0.000003 
0.000003 
0.000003 
0.000004 
0.000004 
0.000004 
0.000005 
0.000005 
0.000005 
0.000006 
0.000006 
0.000007 
0.000007 
0.000007 
0.000008 
0.000009 
0.000009 
0.000010 
0.000010 
0.000011 
0.000012 
0.000013 
0.000014 
0.000015 
0.000016 
0.000017 
0.000018 
0.000019 
0.000020 
0.000021 
0.000023 
0.000024 
0.000026 
0.000027 
0.000029 
0.000031 
0.000032 
0.000034 
0.000036 
0.000039 
0.000041 
0.000043 
0.000046 
0.000049 
0.000051 
0.000054 
0.000057 
0.000061 
0.000064 
0.000067 
0.000071 
0.000075 
0.000079 
0.000083 
0.000088 
0.000092 
0.000097 
0.000102 
0.000108 
0.000113 
0.000119 
0.000125 
0.000131 
0.000137 
0.000144 
0.000151 
0.000158 
0.000166 
0.000174 
0.000182 
0.000190 
0.000199 
0.000208 
0.000217 
0.000227 
0.000237 
0.000248 
0.000258 
0.000269 
0.000281 
0.000293 
0.000305 
0.000317 
0.000330 
0.000344 
0.000357 
0.000372 
0.000386 
0.000401 
0.000416 
0.000432 
0.000448 
0.000465 
0.000482 
0.000500 
0.000517 
0.000536 
0.000555 
0.000574 
0.000593 
0.000613 
0.000634 
0.000655 
0.000676 
0.000698 
0.000720 
0.000742 
0.000765 
0.000789 
0.000812 
0.000836 
0.000861 
0.000886 
0.000911 
0.000936 
0.000962 
0.000988 
0.001015 
0.001042 
0.001069 
0.001096 
0.001124 
0.001152 
0.001180 
0.001209 
0.001237 
0.001266 
0.001295 
0.001324 
0.001353 
0.001383 
0.001412 
0.001442 
0.001471 
0.001501 
0.001530 
0.001560 
0.001590 
0.001619 
0.001649 
0.001678 
0.001707 
0.001736 
0.001765 
0.001794 
0.001822 
0.001851 
0.001879 
0.001906 
0.001934 
0.001961 
0.001988 
0.002014 
0.002040 
0.002065 
0.002090 
0.002115 
0.002139 
0.002163 
0.002186 
0.002208 
0.002230 
0.002251 
0.002272 
0.002291 
0.002311 
0.002329 
0.002347 
0.002364 
0.002381 
0.002396 
0.002411 
0.002425 
0.002438 
0.002451 
0.002462 
0.002473 
0.002483 
0.002492 
0.002500 
0.002507 
0.002514 
0.002519 
0.002524 
0.002528 
0.002530 
0.002532 
0.002533 
0.000000 
0.000000 
0.000000 
0.000000 
0.000000 
0.000000 
0.000000 
0.000000 
0.000000 
0.000000 
0.000000 
0.000000 
0.000000 
0.000000 
0.000000 
0.000000 
0.000000 
0.000000 
0.000000 
0.000000 
0.000000 
0.000000 
0.000000 
0.000000 
0.000000 
0.000000 