# vtk DataFile Version 3.0
results.vtk
ASCII
DATASET RECTILINEAR_GRID
DIMENSIONS 301 301 1
X_COORDINATES 301 double
0.000000 0.003333 0.006667 0.010000 0.013333 0.016667 0.020000 0.023333 0.026667 0.030000 0.033333 0.036667 0.040000 0.043333 0.046667 0.050000 0.053333 0.056667 0.060000 0.063333 0.066667 0.070000 0.073333 0.076667 0.080000 0.083333 0.086667 0.090000 0.093333 0.096667 0.100000 0.103333 0.106667 0.110000 0.113333 0.116667 0.120000 0.123333 0.126667 0.130000 0.133333 0.136667 0.140000 0.143333 0.146667 0.150000 0.153333 0.156667 0.160000 0.163333 0.166667 0.170000 0.173333 0.176667 0.180000 0.183333 0.186667 0.190000 0.193333 0.196667 0.200000 0.203333 0.206667 0.210000 0.213333 0.216667 0.220000 0.223333 0.226667 0.230000 0.233333 0.236667 0.240000 0.243333 0.246667 0.250000 0.253333 0.256667 0.260000 0.263333 0.266667 0.270000 0.273333 0.276667 0.280000 0.283333 0.286667 0.290000 0.293333 0.296667 0.300000 0.303333 0.306667 0.310000 0.313333 0.316667 0.320000 0.323333 0.326667 0.330000 0.333333 0.336667 0.340000 0.343333 0.346667 0.350000 0.353333 0.356667 0.360000 0.363333 0.366667 0.370000 0.373333 0.376667 0.380000 0.383333 0.386667 0.390000 0.393333 0.396667 0.400000 0.403333 0.406667 0.410000 0.413333 0.416667 0.420000 0.423333 0.426667 0.430000 0.433333 0.436667 0.440000 0.443333 0.446667 0.450000 0.453333 0.456667 0.460000 0.463333 0.466667 0.470000 0.473333 0.476667 0.480000 0.483333 0.486667 0.490000 0.493333 0.496667 0.500000 0.503333 0.506667 0.510000 0.513333 0.516667 0.520000 0.523333 0.526667 0.530000 0.533333 0.536667 0.540000 0.543333 0.546667 0.550000 0.553333 0.556667 0.560000 0.563333 0.566667 0.570000 0.573333 0.576667 0.580000 0.583333 0.586667 0.590000 0.593333 0.596667 0.600000 0.603333 0.606667 0.610000 0.613333 0.616667 0.620000 0.623333 0.626667 0.630000 0.633333 0.636667 0.640000 0.643333 0.646667 0.650000 0.653333 0.656667 0.660000 0.663333 0.666667 0.670000 0.673333 0.676667 0.680000 0.683333 0.686667 0.690000 0.693333 0.696667 0.700000 0.703333 0.706667 0.710000 0.713333 0.716667 0.720000 0.723333 0.726667 0.730000 0.733333 0.736667 0.740000 0.743333 0.746667 0.750000 0.753333 0.756667 0.760000 0.763333 0.766667 0.770000 0.773333 0.776667 0.780000 0.783333 0.786667 0.790000 0.793333 0.796667 0.800000 0.803333 0.806667 0.810000 0.813333 0.816667 0.820000 0.823333 0.826667 0.830000 0.833333 0.836667 0.840000 0.843333 0.846667 0.850000 0.853333 0.856667 0.860000 0.863333 0.866667 0.870000 0.873333 0.876667 0.880000 0.883333 0.886667 0.890000 0.893333 0.896667 0.900000 0.903333 0.906667 0.910000 0.913333 0.916667 0.920000 0.923333 0.926667 0.930000 0.933333 0.936667 0.940000 0.943333 0.946667 0.950000 0.953333 0.956667 0.960000 0.963333 0.966667 0.970000 0.973333 0.976667 0.980000 0.983333 0.986667 0.990000 0.993333 0.996667 1.000000 
Y_COORDINATES 301 double
0.000000 0.003333 0.006667 0.010000 0.013333 0.016667 0.020000 0.023333 0.026667 0.030000 0.033333 0.036667 0.040000 0.043333 0.046667 0.050000 0.053333 0.056667 0.060000 0.063333 0.066667 0.070000 0.073333 0.076667 0.080000 0.083333 0.086667 0.090000 0.093333 0.096667 0.100000 0.103333 0.106667 0.110000 0.113333 0.116667 0.120000 0.123333 0.126667 0.130000 0.133333 0.136667 0.140000 0.143333 0.146667 0.150000 0.153333 0.156667 0.160000 0.163333 0.166667 0.170000 0.173333 0.176667 0.180000 0.183333 0.186667 0.190000 0.193333 0.196667 0.200000 0.203333 0.206667 0.210000 0.213333 0.216667 0.220000 0.223333 0.226667 0.230000 0.233333 0.236667 0.240000 0.243333 0.246667 0.250000 0.253333 0.256667 0.260000 0.263333 0.266667 0.270000 0.273333 0.276667 0.280000 0.283333 0.286667 0.290000 0.293333 0.296667 0.300000 0.303333 0.306667 0.310000 0.313333 0.316667 0.320000 0.323333 0.326667 0.330000 0.333333 0.336667 0.340000 0.343333 0.346667 0.350000 0.353333 0.356667 0.360000 0.363333 0.366667 0.370000 0.373333 0.376667 0.380000 0.383333 0.386667 0.390000 0.393333 0.396667 0.400000 0.403333 0.406667 0.410000 0.413333 0.416667 0.420000 0.423333 0.426667 0.430000 0.433333 0.436667 0.440000 0.443333 0.446667 0.450000 0.453333 0.456667 0.460000 0.463333 0.466667 0.470000 0.473333 0.476667 0.480000 0.483333 0.486667 0.490000 0.493333 0.496667 0.500000 0.503333 0.506667 0.510000 0.513333 0.516667 0.520000 0.523333 0.526667 0.530000 0.533333 0.536667 0.540000 0.543333 0.546667 0.550000 0.553333 0.556667 0.560000 0.563333 0.566667 0.570000 0.573333 0.576667 0.580000 0.583333 0.586667 0.590000 0.593333 0.596667 0.600000 0.603333 0.606667 0.610000 0.613333 0.616667 0.620000 0.623333 0.626667 0.630000 0.633333 0.636667 0.640000 0.643333 0.646667 0.650000 0.653333 0.656667 0.660000 0.663333 0.666667 0.670000 0.673333 0.676667 0.680000 0.683333 0.686667 0.690000 0.693333 0.696667 0.700000 0.703333 0.706667 0.710000 0.713333 0.716667 0.720000 0.723333 0.726667 0.730000 0.733333 0.736667 0.740000 0.743333 0.746667 0.750000 0.753333 0.756667 0.760000 0.763333 0.766667 0.770000 0.773333 0.776667 0.780000 0.783333 0.786667 0.790000 0.793333 0.796667 0.800000 0.803333 0.806667 0.810000 0.813333 0.816667 0.820000 0.823333 0.826667 0.830000 0.833333 0.836667 0.840000 0.843333 0.846667 0.850000 0.853333 0.856667 0.860000 0.863333 0.866667 0.870000 0.873333 0.876667 0.880000 0.883333 0.886667 0.890000 0.893333 0.896667 0.900000 0.903333 0.906667 0.910000 0.913333 0.916667 0.920000 0.923333 0.926667 0.930000 0.933333 0.936667 0.940000 0.943333 0.946667 0.950000 0.953333 0.956667 0.960000 0.963333 0.966667 0.970000 0.973333 0.976667 0.980000 0.983333 0.986667 0.990000 0.993333 0.996667 1.000000 
Z_COORDINATES 1 double
0
POINT_DATA 90601 
FIELD FieldData 1 
Concentração 1 90601 double 
0.000000 
0.000000 
0.000000 
0.000000 
0.000000 
0.000000 
0.000000 
0.000000 
0.000000 
0.000000 
0.000000 
0.000000 
0.000000 
0.000000 
0.000000 
0.000000 
0.000000 
0.000000 
0.000000 
0.000000 
0.000000 
0.000000 
0.000000 
0.000000 
0.000000 
0.000000 
0.000000 
0.000000 
0.000000 
0.000000 
0.000000 
0.000000 
0.000000 
0.000000 
0.000000 
0.000000 
0.000000 
0.000000 
0.000000 
0.000000 
0.000000 
0.000000 
0.000000 
0.000000 
0.000000 
0.000000 
0.000000 
0.000000 
0.000000 
0.000000 
0.000000 
0.000000 
0.000000 
0.000000 
0.000000 
0.000000 
0.000000 
0.000000 
0.000000 
0.000000 
0.000000 
0.000000 
0.000000 
0.000000 
0.000000 
0.000000 
0.000000 
0.000000 
0.000000 
0.000000 
0.000000 
0.000000 
0.000000 
0.000000 
0.000000 
0.000000 
0.000000 
0.000000 
0.000000 
0.000000 
0.000000 
0.000000 
0.000000 
0.000000 
0.000000 
0.000000 
0.000000 
0.000000 
0.000000 
0.000000 
0.000000 
0.000000 
0.000000 
0.000000 
0.000000 
0.000000 
0.000000 
0.000000 
0.000000 
0.000000 
0.000000 
0.000000 
0.000000 
0.000000 
0.000000 
0.000000 
0.000000 
0.000000 
0.000000 
0.000000 
0.000000 
0.000000 
0.000001 
0.000001 
0.000001 
0.000001 
0.000001 
0.000001 
0.000001 
0.000001 
0.000001 
0.000001 
0.000001 
0.000001 
0.000001 
0.000001 
0.000001 
0.000002 
0.000002 
0.000002 
0.000002 
0.000002 
0.000002 
0.000002 
0.000002 
0.000003 
0.000003 
0.000003 
0.000003 
0.000003 
0.000004 
0.000004 
0.000004 
0.000004 
0.000005 
0.000005 
0.000005 
0.000005 
0.000006 
0.000006 
0.000006 
0.000007 
0.000007 
0.000008 
0.000008 
0.000009 
0.000009 
0.000010 
0.000010 
0.000011 
0.000011 
0.000012 
0.000012 
0.000013 
0.000014 
0.000015 
0.000015 
0.000016 
0.000017 
0.000018 
0.000019 
0.000020 
0.000021 
0.000022 
0.000023 
0.000024 
0.000025 
0.000026 
0.000028 
0.000029 
0.000030 
0.000032 
0.000033 
0.000035 
0.000036 
0.000038 
0.000039 
0.000041 
0.000043 
0.000045 
0.000047 
0.000049 
0.000051 
0.000053 
0.000055 
0.000057 
0.000060 
0.000062 
0.000064 
0.000067 
0.000070 
0.000072 
0.000075 
0.000078 
0.000081 
0.000083 
0.000086 
0.000090 
0.000093 
0.000096 
0.000099 
0.000103 
0.000106 
0.000110 
0.000113 
0.000117 
0.000121 
0.000124 
0.000128 
0.000132 
0.000136 
0.000140 
0.000144 
0.000149 
0.000153 
0.000157 
0.000162 
0.000166 
0.000171 
0.000175 
0.000180 
0.000185 
0.000189 
0.000194 
0.000199 
0.000204 
0.000209 
0.000214 
0.000218 
0.000223 
0.000229 
0.000234 
0.000239 
0.000244 
0.000249 
0.000254 
0.000259 
0.000264 
0.000269 
0.000274 
0.000279 
0.000285 
0.000290 
0.000295 
0.000300 
0.000305 
0.000310 
0.000315 
0.000320 
0.000325 
0.000329 
0.000334 
0.000339 
0.000343 
0.000348 
0.000353 
0.000357 
0.000361 
0.000366 
0.000370 
0.000374 
0.000378 
0.000382 
0.000386 
0.000390 
0.000393 
0.000397 
0.000400 
0.000404 
0.000407 
0.000410 
0.000413 
0.000415 
0.000418 
0.000421 
0.000423 
0.000425 
0.000428 
0.000429 
0.000431 
0.000433 
0.000435 
0.000436 
0.000437 
0.000438 
0.000439 
0.000440 
0.000441 
0.000441 
0.000441 
0.000442 
0.000000 
0.000000 
0.000000 
0.000000 
0.000000 
0.000000 
0.000000 
0.000000 
0.000000 
0.000000 
0.000000 
0.000000 
0.000000 
0.000000 
0.000000 
0.000000 
0.000000 
0.000000 
0.000000 
0.000000 
0.000000 
0.000000 
0.000000 
0.000000 
0.000000 
0.000000 
0.000000 
0.000000 
0.000000 
0.000000 
0.000000 
0.000000 
0.000000 
0.000000 
0.000000 
0.000000 
0.000000 
0.000000 
0.000000 
0.000000 
0.000000 
0.000000 
0.000000 
0.000000 
0.000000 
0.000000 
0.000000 
0.000000 
0.000000 
0.000000 
0.000000 
0.000000 
0.000000 
0.000000 
0.000000 
0.000000 
0.000000 
0.000000 
0.000000 
0.000000 
0.000000 
0.000000 
0.000000 
0.000000 
0.000000 
0.000000 
0.000000 
0.000000 
0.000000 
0.000000 
0.000000 
0.000000 
0.000000 
0.000000 
0.000000 
0.000000 
0.000000 
0.000000 
0.000000 
0.000000 
0.000000 
0.000000 
0.000000 
0.000000 
0.000000 
0.000000 
0.000000 
0.000000 
0.000000 
0.000000 
0.000000 
0.000000 
0.000000 
0.000000 
0.000000 
0.000000 
0.000000 
0.000000 
0.000000 
0.000000 
0.000000 
0.000000 
0.000001 
0.000001 
0.000001 
0.000001 
0.000001 
0.000001 
0.000001 
0.000001 
0.000001 
0.000001 
0.000001 
0.000001 
0.000001 
0.000001 
0.000001 
0.000002 
0.000002 
0.000002 
0.000002 
0.000002 
0.000002 
0.000002 
0.000003 
0.000003 
0.000003 
0.000003 
0.000003 
0.000004 
0.000004 
0.000004 
0.000004 
0.000005 
0.000005 
0.000005 
0.000006 
0.000006 
0.000006 
0.000007 
0.000007 
0.000008 
0.000008 
0.000009 
0.000009 
0.000010 
0.000010 
0.000011 
0.000011 
0.000012 
0.000013 
0.000014 
0.000014 
0.000015 
0.000016 
0.000017 
0.000018 
0.000019 
0.000020 
0.000021 
0.000023 
0.000024 
0.000025 
0.000026 
0.000028 
0.000029 
0.000031 
0.000033 
0.000034 
0.000036 
0.000038 
0.000040 
0.000042 
0.000044 
0.000046 
0.000048 
0.000051 
0.000053 
0.000056 
0.000058 
0.000061 
0.000064 
0.000067 
0.000070 
0.000073 
0.000076 
0.000079 
0.000083 
0.000087 
0.000090 
0.000094 
0.000098 
0.000102 
0.000106 
0.000111 
0.000115 
0.000120 
0.000125 
0.000130 
0.000135 
0.000140 
0.000145 
0.000151 
0.000156 
0.000162 
0.000168 
0.000174 
0.000180 
0.000187 
0.000193 
0.000200 
0.000206 
0.000213 
0.000220 
0.000228 
0.000235 
0.000243 
0.000250 
0.000258 
0.000266 
0.000274 
0.000282 
0.000291 
0.000299 
0.000308 
0.000316 
0.000325 
0.000334 
0.000343 
0.000352 
0.000362 
0.000371 
0.000381 
0.000390 
0.000400 
0.000410 
0.000420 
0.000429 
0.000439 
0.000449 
0.000460 
0.000470 
0.000480 
0.000490 
0.000500 
0.000511 
0.000521 
0.000531 
0.000541 
0.000552 
0.000562 
0.000572 
0.000583 
0.000593 
0.000603 
0.000613 
0.000623 
0.000633 
0.000643 
0.000653 
0.000662 
0.000672 
0.000681 
0.000691 
0.000700 
0.000709 
0.000718 
0.000727 
0.000735 
0.000744 
0.000752 
0.000760 
0.000768 
0.000776 
0.000783 
0.000791 
0.000798 
0.000805 
0.000811 
0.000818 
0.000824 
0.000830 
0.000835 
0.000841 
0.000846 
0.000851 
0.000855 
0.000859 
0.000863 
0.000867 
0.000871 
0.000874 
0.000876 
0.000879 
0.000881 
0.000883 
0.000885 
0.000886 
0.000887 
0.000887 
0.000888 
0.000000 
0.000000 
0.000000 
0.000000 
0.000000 
0.000000 
0.000000 
0.000000 
0.000000 
0.000000 
0.000000 
0.000000 
0.000000 
0.000000 
0.000000 
0.000000 
0.000000 
0.000000 
0.000000 
0.000000 
0.000000 
0.000000 
0.000000 
0.000000 
0.000000 
0.000000 
0.000000 
0.000000 
0.000000 
0.000000 
0.000000 
0.000000 
0.000000 
0.000000 
0.000000 
0.000000 
0.000000 
0.000000 
0.000000 
0.000000 
0.000000 
0.000000 
0.000000 
0.000000 
0.000000 
0.000000 
0.000000 
0.000000 
0.000000 
0.000000 
0.000000 
0.000000 
0.000000 
0.000000 
0.000000 
0.000000 
0.000000 
0.000000 
0.000000 
0.000000 
0.000000 
0.000000 
0.000000 
0.000000 
0.000000 
0.000000 
0.000000 
0.000000 
0.000000 
0.000000 
0.000000 
0.000000 
0.000000 
0.000000 
0.000000 
0.000000 
0.000000 
0.000000 
0.000000 
0.000000 
0.000000 
0.000000 
0.000000 
0.000000 
0.000000 
0.000000 
0.000000 
0.000000 
0.000000 
0.000000 
0.000000 
0.000000 
0.000000 
0.000000 
0.000000 
0.000000 
0.000000 
0.000001 
0.000001 
0.000001 
0.000001 
0.000001 
0.000001 
0.000001 
0.000001 
0.000001 
0.000001 
0.000001 
0.000001 
0.000001 
0.000001 
0.000002 
0.000002 
0.000002 
0.000002 
0.000002 
0.000002 
0.000002 
0.000003 
0.000003 
0.000003 
0.000003 
0.000003 
0.000004 
0.000004 
0.000004 
0.000004 
0.000005 
0.000005 
0.000005 
0.000006 
0.000006 
0.000006 
0.000007 
0.000007 
0.000008 
0.000008 
0.000009 
0.000010 
0.000010 
0.000011 
0.000011 
0.000012 
0.000013 
0.000014 
0.000015 
0.000015 
0.000016 
0.000017 
0.000018 
0.000020 
0.000021 
0.000022 
0.000023 
0.000025 
0.000026 
0.000027 
0.000029 
0.000031 
0.000032 
0.000034 
0.000036 
0.000038 
0.000040 
0.000042 
0.000044 
0.000047 
0.000049 
0.000052 
0.000055 
0.000057 
0.000060 
0.000063 
0.000066 
0.000070 
0.000073 
0.000077 
0.000080 
0.000084 
0.000088 
0.000092 
0.000097 
0.000101 
0.000106 
0.000110 
0.000115 
0.000120 
0.000126 
0.000131 
0.000137 
0.000143 
0.000149 
0.000155 
0.000161 
0.000168 
0.000175 
0.000182 
0.000189 
0.000196 
0.000204 
0.000212 
0.000220 
0.000228 
0.000237 
0.000245 
0.000254 
0.000264 
0.000273 
0.000283 
0.000292 
0.000302 
0.000313 
0.000323 
0.000334 
0.000345 
0.000356 
0.000367 
0.000379 
0.000391 
0.000403 
0.000415 
0.000427 
0.000440 
0.000453 
0.000466 
0.000479 
0.000493 
0.000506 
0.000520 
0.000534 
0.000548 
0.000562 
0.000576 
0.000591 
0.000606 
0.000620 
0.000635 
0.000650 
0.000665 
0.000680 
0.000696 
0.000711 
0.000726 
0.000742 
0.000757 
0.000773 
0.000788 
0.000804 
0.000820 
0.000835 
0.000851 
0.000866 
0.000882 
0.000897 
0.000912 
0.000928 
0.000943 
0.000958 
0.000973 
0.000988 
0.001002 
0.001017 
0.001031 
0.001045 
0.001059 
0.001073 
0.001086 
0.001100 
0.001113 
0.001126 
0.001138 
0.001150 
0.001162 
0.001174 
0.001185 
0.001196 
0.001207 
0.001218 
0.001228 
0.001237 
0.001247 
0.001255 
0.001264 
0.001272 
0.001280 
0.001287 
0.001294 
0.001300 
0.001306 
0.001312 
0.001317 
0.001322 
0.001326 
0.001330 
0.001333 
0.001336 
0.001338 
0.001340 
0.001342 
0.001343 
0.001343 
0.000000 
0.000000 
0.000000 
0.000000 
0.000000 
0.000000 
0.000000 
0.000000 
0.000000 
0.000000 
0.000000 
0.000000 
0.000000 
0.000000 
0.000000 
0.000000 
0.000000 
0.000000 
0.000000 
0.000000 
0.000000 
0.000000 
0.000000 
0.000000 
0.000000 
0.000000 
0.000000 
0.000000 
0.000000 
0.000000 
0.000000 
0.000000 
0.000000 
0.000000 
0.000000 
0.000000 
0.000000 
0.000000 
0.000000 
0.000000 
0.000000 
0.000000 
0.000000 
0.000000 
0.000000 
0.000000 
0.000000 
0.000000 
0.000000 
0.000000 
0.000000 
0.000000 
0.000000 
0.000000 
0.000000 
0.000000 
0.000000 
0.000000 
0.000000 
0.000000 
0.000000 
0.000000 
0.000000 
0.000000 
0.000000 
0.000000 
0.000000 
0.000000 
0.000000 
0.000000 
0.000000 
0.000000 
0.000000 
0.000000 
0.000000 
0.000000 
0.000000 
0.000000 
0.000000 
0.000000 
0.000000 
0.000000 
0.000000 
0.000000 
0.000000 
0.000000 
0.000000 
0.000000 
0.000000 
0.000000 
0.000000 
0.000000 
0.000000 
0.000001 
0.000001 
0.000001 
0.000001 
0.000001 
0.000001 
0.000001 
0.000001 
0.000001 
0.000001 
0.000001 
0.000001 
0.000001 
0.000001 
0.000002 
0.000002 
0.000002 
0.000002 
0.000002 
0.000002 
0.000002 
0.000003 
0.000003 
0.000003 
0.000003 
0.000003 
0.000004 
0.000004 
0.000004 
0.000004 
0.000005 
0.000005 
0.000006 
0.000006 
0.000006 
0.000007 
0.000007 
0.000008 
0.000008 
0.000009 
0.000009 
0.000010 
0.000011 
0.000011 
0.000012 
0.000013 
0.000014 
0.000015 
0.000015 
0.000016 
0.000017 
0.000019 
0.000020 
0.000021 
0.000022 
0.000024 
0.000025 
0.000026 
0.000028 
0.000030 
0.000031 
0.000033 
0.000035 
0.000037 
0.000039 
0.000041 
0.000044 
0.000046 
0.000049 
0.000051 
0.000054 
0.000057 
0.000060 
0.000063 
0.000067 
0.000070 
0.000074 
0.000077 
0.000081 
0.000085 
0.000090 
0.000094 
0.000099 
0.000104 
0.000109 
0.000114 
0.000119 
0.000125 
0.000131 
0.000137 
0.000143 
0.000149 
0.000156 
0.000163 
0.000170 
0.000177 
0.000185 
0.000193 
0.000201 
0.000209 
0.000218 
0.000227 
0.000236 
0.000246 
0.000255 
0.000265 
0.000276 
0.000286 
0.000297 
0.000308 
0.000320 
0.000332 
0.000344 
0.000356 
0.000369 
0.000382 
0.000395 
0.000409 
0.000423 
0.000437 
0.000451 
0.000466 
0.000481 
0.000496 
0.000512 
0.000528 
0.000544 
0.000561 
0.000578 
0.000595 
0.000612 
0.000629 
0.000647 
0.000665 
0.000684 
0.000702 
0.000721 
0.000740 
0.000759 
0.000779 
0.000798 
0.000818 
0.000838 
0.000858 
0.000878 
0.000898 
0.000919 
0.000940 
0.000960 
0.000981 
0.001002 
0.001023 
0.001044 
0.001065 
0.001086 
0.001107 
0.001128 
0.001149 
0.001170 
0.001190 
0.001211 
0.001232 
0.001252 
0.001273 
0.001293 
0.001313 
0.001333 
0.001353 
0.001372 
0.001392 
0.001411 
0.001430 
0.001448 
0.001466 
0.001484 
0.001502 
0.001519 
0.001536 
0.001553 
0.001569 
0.001585 
0.001600 
0.001615 
0.001629 
0.001643 
0.001657 
0.001670 
0.001682 
0.001694 
0.001706 
0.001717 
0.001727 
0.001737 
0.001746 
0.001755 
0.001763 
0.001771 
0.001777 
0.001784 
0.001789 
0.001795 
0.001799 
0.001803 
0.001806 
0.001809 
0.001811 
0.001812 
0.001812 
0.000000 
0.000000 
0.000000 
0.000000 
0.000000 
0.000000 
0.000000 
0.000000 
0.000000 
0.000000 
0.000000 
0.000000 
0.000000 
0.000000 
0.000000 
0.000000 
0.000000 
0.000000 
0.000000 
0.000000 
0.000000 
0.000000 
0.000000 
0.000000 
0.000000 
0.000000 
0.000000 
0.000000 
0.000000 
0.000000 
0.000000 
0.000000 
0.000000 
0.000000 
0.000000 
0.000000 
0.000000 
0.000000 
0.000000 
0.000000 
0.000000 
0.000000 
0.000000 
0.000000 
0.000000 
0.000000 
0.000000 
0.000000 
0.000000 
0.000000 
0.000000 
0.000000 
0.000000 
0.000000 
0.000000 
0.000000 
0.000000 
0.000000 
0.000000 
0.000000 
0.000000 
0.000000 
0.000000 
0.000000 
0.000000 
0.000000 
0.000000 
0.000000 
0.000000 
0.000000 
0.000000 
0.000000 
0.000000 
0.000000 
0.000000 
0.000000 
0.000000 
0.000000 
0.000000 
0.000000 
0.000000 
0.000000 
0.000000 
0.000000 
0.000000 
0.000000 
0.000000 
0.000000 
0.000000 
0.000000 
0.000001 
0.000001 
0.000001 
0.000001 
0.000001 
0.000001 
0.000001 
0.000001 
0.000001 
0.000001 
0.000001 
0.000001 
0.000001 
0.000001 
0.000002 
0.000002 
0.000002 
0.000002 
0.000002 
0.000002 
0.000002 
0.000003 
0.000003 
0.000003 
0.000003 
0.000003 
0.000004 
0.000004 
0.000004 
0.000005 
0.000005 
0.000005 
0.000006 
0.000006 
0.000007 
0.000007 
0.000008 
0.000008 
0.000009 
0.000009 
0.000010 
0.000010 
0.000011 
0.000012 
0.000013 
0.000014 
0.000014 
0.000015 
0.000016 
0.000017 
0.000019 
0.000020 
0.000021 
0.000022 
0.000024 
0.000025 
0.000027 
0.000028 
0.000030 
0.000032 
0.000034 
0.000036 
0.000038 
0.000040 
0.000042 
0.000045 
0.000047 
0.000050 
0.000053 
0.000056 
0.000059 
0.000062 
0.000065 
0.000069 
0.000073 
0.000077 
0.000081 
0.000085 
0.000089 
0.000094 
0.000099 
0.000104 
0.000109 
0.000114 
0.000120 
0.000126 
0.000132 
0.000138 
0.000145 
0.000152 
0.000159 
0.000166 
0.000174 
0.000182 
0.000190 
0.000198 
0.000207 
0.000216 
0.000226 
0.000235 
0.000245 
0.000256 
0.000266 
0.000277 
0.000289 
0.000300 
0.000313 
0.000325 
0.000338 
0.000351 
0.000364 
0.000378 
0.000392 
0.000407 
0.000422 
0.000437 
0.000453 
0.000469 
0.000486 
0.000503 
0.000520 
0.000537 
0.000555 
0.000574 
0.000593 
0.000612 
0.000631 
0.000651 
0.000671 
0.000692 
0.000713 
0.000734 
0.000756 
0.000778 
0.000800 
0.000823 
0.000846 
0.000869 
0.000892 
0.000916 
0.000940 
0.000965 
0.000989 
0.001014 
0.001039 
0.001065 
0.001090 
0.001116 
0.001142 
0.001168 
0.001194 
0.001220 
0.001246 
0.001273 
0.001299 
0.001326 
0.001353 
0.001379 
0.001406 
0.001432 
0.001459 
0.001486 
0.001512 
0.001538 
0.001565 
0.001591 
0.001616 
0.001642 
0.001668 
0.001693 
0.001718 
0.001743 
0.001767 
0.001792 
0.001815 
0.001839 
0.001862 
0.001885 
0.001907 
0.001929 
0.001950 
0.001971 
0.001992 
0.002012 
0.002031 
0.002050 
0.002068 
0.002086 
0.002103 
0.002120 
0.002136 
0.002151 
0.002165 
0.002179 
0.002192 
0.002205 
0.002217 
0.002228 
0.002238 
0.002247 
0.002256 
0.002264 
0.002271 
0.002278 
0.002283 
0.002288 
0.002292 
0.002296 
0.002298 
0.002300 
0.002300 
0.000000 
0.000000 
0.000000 
0.000000 
0.000000 
0.000000 
0.000000 
0.000000 
0.000000 
0.000000 
0.000000 
0.000000 
0.000000 
0.000000 
0.000000 
0.000000 
0.000000 
0.000000 
0.000000 
0.000000 
0.000000 
0.000000 
0.000000 
0.000000 
0.000000 
0.000000 
0.000000 
0.000000 
0.000000 
0.000000 
0.000000 
0.000000 
0.000000 
0.000000 
0.000000 
0.000000 
0.000000 
0.000000 
0.000000 
0.000000 
0.000000 
0.000000 
0.000000 
0.000000 
0.000000 
0.000000 
0.000000 
0.000000 
0.000000 
0.000000 
0.000000 
0.000000 
0.000000 
0.000000 
0.000000 
0.000000 
0.000000 
0.000000 
0.000000 
0.000000 
0.000000 
0.000000 
0.000000 
0.000000 
0.000000 
0.000000 
0.000000 
0.000000 
0.000000 
0.000000 
0.000000 
0.000000 
0.000000 
0.000000 
0.000000 
0.000000 
0.000000 
0.000000 
0.000000 
0.000000 
0.000000 
0.000000 
0.000000 
0.000000 
0.000000 
0.000000 
0.000000 
0.000000 
0.000001 
0.000001 
0.000001 
0.000001 
0.000001 
0.000001 
0.000001 
0.000001 
0.000001 
0.000001 
0.000001 
0.000001 
0.000001 
0.000002 
0.000002 
0.000002 
0.000002 
0.000002 
0.000002 
0.000002 
0.000003 
0.000003 
0.000003 
0.000003 
0.000003 
0.000004 
0.000004 
0.000004 
0.000005 
0.000005 
0.000005 
0.000006 
0.000006 
0.000007 
0.000007 
0.000008 
0.000008 
0.000009 
0.000009 
0.000010 
0.000011 
0.000011 
0.000012 
0.000013 
0.000014 
0.000015 
0.000016 
0.000017 
0.000018 
0.000019 
0.000020 
0.000021 
0.000023 
0.000024 
0.000026 
0.000027 
0.000029 
0.000031 
0.000033 
0.000035 
0.000037 
0.000039 
0.000041 
0.000044 
0.000046 
0.000049 
0.000052 
0.000055 
0.000058 
0.000061 
0.000065 
0.000068 
0.000072 
0.000076 
0.000080 
0.000085 
0.000089 
0.000094 
0.000099 
0.000104 
0.000109 
0.000115 
0.000121 
0.000127 
0.000133 
0.000140 
0.000147 
0.000154 
0.000162 
0.000169 
0.000178 
0.000186 
0.000195 
0.000204 
0.000213 
0.000223 
0.000233 
0.000243 
0.000254 
0.000265 
0.000277 
0.000288 
0.000301 
0.000313 
0.000327 
0.000340 
0.000354 
0.000368 
0.000383 
0.000398 
0.000414 
0.000430 
0.000446 
0.000463 
0.000481 
0.000499 
0.000517 
0.000536 
0.000555 
0.000575 
0.000595 
0.000616 
0.000637 
0.000658 
0.000680 
0.000703 
0.000726 
0.000749 
0.000773 
0.000798 
0.000822 
0.000847 
0.000873 
0.000899 
0.000926 
0.000953 
0.000980 
0.001008 
0.001036 
0.001064 
0.001093 
0.001122 
0.001151 
0.001181 
0.001211 
0.001242 
0.001272 
0.001303 
0.001334 
0.001366 
0.001397 
0.001429 
0.001461 
0.001493 
0.001525 
0.001558 
0.001590 
0.001623 
0.001655 
0.001688 
0.001720 
0.001753 
0.001785 
0.001817 
0.001850 
0.001882 
0.001914 
0.001946 
0.001977 
0.002009 
0.002040 
0.002071 
0.002101 
0.002132 
0.002162 
0.002191 
0.002220 
0.002249 
0.002277 
0.002305 
0.002332 
0.002359 
0.002385 
0.002411 
0.002436 
0.002460 
0.002484 
0.002507 
0.002529 
0.002551 
0.002571 
0.002592 
0.002611 
0.002629 
0.002647 
0.002664 
0.002680 
0.002695 
0.002710 
0.002723 
0.002736 
0.002747 
0.002758 
0.002768 
0.002777 
0.002784 
0.002791 
0.002797 
0.002802 
0.002806 
0.002809 
0.002811 
0.002812 
0.000000 
0.000000 
0.000000 
0.000000 
0.000000 
0.000000 
0.000000 
0.000000 
0.000000 
0.000000 
0.000000 
0.000000 
0.000000 
0.000000 
0.000000 
0.000000 
0.000000 
0.000000 
0.000000 
0.000000 
0.000000 
0.000000 
0.000000 
0.000000 
0.000000 
0.000000 
0.000000 
0.000000 
0.000000 
0.000000 
0.000000 
0.000000 
0.000000 
0.000000 
0.000000 
0.000000 
0.000000 
0.000000 
0.000000 
0.000000 
0.000000 
0.000000 
0.000000 
0.000000 
0.000000 
0.000000 
0.000000 
0.000000 
0.000000 
0.000000 
0.000000 
0.000000 
0.000000 
0.000000 
0.000000 
0.000000 
0.000000 
0.000000 
0.000000 
0.000000 
0.000000 
0.000000 
0.000000 
0.000000 
0.000000 
0.000000 
0.000000 
0.000000 
0.000000 
0.000000 
0.000000 
0.000000 
0.000000 
0.000000 
0.000000 
0.000000 
0.000000 
0.000000 
0.000000 
0.000000 
0.000000 
0.000000 
0.000000 
0.000000 
0.000000 
0.000000 
0.000001 
0.000001 
0.000001 
0.000001 
0.000001 
0.000001 
0.000001 
0.000001 
0.000001 
0.000001 
0.000001 
0.000001 
0.000001 
0.000002 
0.000002 
0.000002 
0.000002 
0.000002 
0.000002 
0.000002 
0.000003 
0.000003 
0.000003 
0.000003 
0.000004 
0.000004 
0.000004 
0.000004 
0.000005 
0.000005 
0.000006 
0.000006 
0.000006 
0.000007 
0.000007 
0.000008 
0.000008 
0.000009 
0.000010 
0.000010 
0.000011 
0.000012 
0.000013 
0.000013 
0.000014 
0.000015 
0.000016 
0.000018 
0.000019 
0.000020 
0.000021 
0.000023 
0.000024 
0.000026 
0.000027 
0.000029 
0.000031 
0.000033 
0.000035 
0.000037 
0.000039 
0.000042 
0.000044 
0.000047 
0.000050 
0.000052 
0.000056 
0.000059 
0.000062 
0.000066 
0.000070 
0.000073 
0.000078 
0.000082 
0.000086 
0.000091 
0.000096 
0.000101 
0.000107 
0.000112 
0.000118 
0.000125 
0.000131 
0.000138 
0.000145 
0.000152 
0.000160 
0.000168 
0.000176 
0.000185 
0.000194 
0.000203 
0.000212 
0.000222 
0.000233 
0.000244 
0.000255 
0.000266 
0.000278 
0.000291 
0.000304 
0.000317 
0.000331 
0.000345 
0.000360 
0.000375 
0.000391 
0.000407 
0.000423 
0.000440 
0.000458 
0.000476 
0.000495 
0.000514 
0.000534 
0.000554 
0.000575 
0.000596 
0.000618 
0.000641 
0.000664 
0.000687 
0.000711 
0.000736 
0.000761 
0.000787 
0.000813 
0.000840 
0.000868 
0.000896 
0.000924 
0.000953 
0.000983 
0.001013 
0.001043 
0.001074 
0.001106 
0.001138 
0.001171 
0.001204 
0.001237 
0.001271 
0.001305 
0.001340 
0.001375 
0.001411 
0.001446 
0.001483 
0.001519 
0.001556 
0.001593 
0.001631 
0.001668 
0.001706 
0.001744 
0.001782 
0.001821 
0.001859 
0.001898 
0.001937 
0.001975 
0.002014 
0.002053 
0.002092 
0.002130 
0.002169 
0.002207 
0.002246 
0.002284 
0.002322 
0.002359 
0.002397 
0.002434 
0.002471 
0.002507 
0.002543 
0.002579 
0.002614 
0.002648 
0.002682 
0.002716 
0.002749 
0.002781 
0.002813 
0.002844 
0.002875 
0.002904 
0.002933 
0.002962 
0.002989 
0.003016 
0.003041 
0.003066 
0.003090 
0.003113 
0.003135 
0.003156 
0.003176 
0.003195 
0.003214 
0.003231 
0.003247 
0.003261 
0.003275 
0.003288 
0.003300 
0.003310 
0.003319 
0.003328 
0.003335 
0.003341 
0.003345 
0.003349 
0.003351 
0.003352 
0.000000 
0.000000 
0.000000 
0.000000 
0.000000 
0.000000 
0.000000 
0.000000 
0.000000 
0.000000 
0.000000 
0.000000 
0.000000 
0.000000 
0.000000 
0.000000 
0.000000 
0.000000 
0.000000 
0.000000 
0.000000 
0.000000 
0.000000 
0.000000 
0.000000 
0.000000 
0.000000 
0.000000 
0.000000 
0.000000 
0.000000 
0.000000 
0.000000 
0.000000 
0.000000 
0.000000 
0.000000 
0.000000 
0.000000 
0.000000 
0.000000 
0.000000 
0.000000 
0.000000 
0.000000 
0.000000 
0.000000 
0.000000 
0.000000 
0.000000 
0.000000 
0.000000 
0.000000 
0.000000 
0.000000 
0.000000 
0.000000 
0.000000 
0.000000 
0.000000 
0.000000 
0.000000 
0.000000 
0.000000 
0.000000 
0.000000 
0.000000 
0.000000 
0.000000 
0.000000 
0.000000 
0.000000 
0.000000 
0.000000 
0.000000 
0.000000 
0.000000 
0.000000 
0.000000 
0.000000 
0.000000 
0.000000 
0.000000 
0.000000 
0.000001 
0.000001 
0.000001 
0.000001 
0.000001 
0.000001 
0.000001 
0.000001 
0.000001 
0.000001 
0.000001 
0.000001 
0.000001 
0.000002 
0.000002 
0.000002 
0.000002 
0.000002 
0.000002 
0.000002 
0.000003 
0.000003 
0.000003 
0.000003 
0.000004 
0.000004 
0.000004 
0.000005 
0.000005 
0.000005 
0.000006 
0.000006 
0.000006 
0.000007 
0.000007 
0.000008 
0.000009 
0.000009 
0.000010 
0.000011 
0.000011 
0.000012 
0.000013 
0.000014 
0.000015 
0.000016 
0.000017 
0.000018 
0.000019 
0.000021 
0.000022 
0.000023 
0.000025 
0.000027 
0.000028 
0.000030 
0.000032 
0.000034 
0.000036 
0.000039 
0.000041 
0.000043 
0.000046 
0.000049 
0.000052 
0.000055 
0.000058 
0.000062 
0.000065 
0.000069 
0.000073 
0.000077 
0.000082 
0.000086 
0.000091 
0.000096 
0.000102 
0.000107 
0.000113 
0.000119 
0.000126 
0.000132 
0.000139 
0.000147 
0.000154 
0.000162 
0.000170 
0.000179 
0.000188 
0.000197 
0.000207 
0.000217 
0.000228 
0.000239 
0.000250 
0.000262 
0.000274 
0.000287 
0.000300 
0.000313 
0.000328 
0.000342 
0.000357 
0.000373 
0.000389 
0.000406 
0.000423 
0.000441 
0.000459 
0.000478 
0.000498 
0.000518 
0.000539 
0.000560 
0.000582 
0.000604 
0.000627 
0.000651 
0.000676 
0.000701 
0.000726 
0.000753 
0.000780 
0.000807 
0.000836 
0.000865 
0.000894 
0.000924 
0.000955 
0.000987 
0.001019 
0.001052 
0.001085 
0.001119 
0.001154 
0.001189 
0.001225 
0.001261 
0.001299 
0.001336 
0.001374 
0.001413 
0.001452 
0.001492 
0.001532 
0.001573 
0.001614 
0.001656 
0.001698 
0.001740 
0.001783 
0.001826 
0.001869 
0.001913 
0.001957 
0.002002 
0.002046 
0.002091 
0.002136 
0.002181 
0.002226 
0.002271 
0.002317 
0.002362 
0.002407 
0.002453 
0.002498 
0.002543 
0.002588 
0.002633 
0.002677 
0.002722 
0.002766 
0.002810 
0.002853 
0.002896 
0.002939 
0.002981 
0.003022 
0.003063 
0.003104 
0.003144 
0.003183 
0.003222 
0.003259 
0.003297 
0.003333 
0.003368 
0.003403 
0.003437 
0.003470 
0.003502 
0.003533 
0.003563 
0.003592 
0.003620 
0.003647 
0.003673 
0.003697 
0.003721 
0.003743 
0.003764 
0.003784 
0.003803 
0.003820 
0.003836 
0.003851 
0.003865 
0.003877 
0.003888 
0.003897 
0.003906 
0.003913 
0.003918 
0.003922 
0.003925 
0.003926 
0.000000 
0.000000 
0.000000 
0.000000 
0.000000 
0.000000 
0.000000 
0.000000 
0.000000 
0.000000 
0.000000 
0.000000 
0.000000 
0.000000 
0.000000 
0.000000 
0.000000 
0.000000 
0.000000 
0.000000 
0.000000 
0.000000 
0.000000 
0.000000 
0.000000 
0.000000 