# vtk DataFile Version 3.0
results.vtk
ASCII
DATASET RECTILINEAR_GRID
DIMENSIONS 301 301 1
X_COORDINATES 301 double
0.000000 0.003333 0.006667 0.010000 0.013333 0.016667 0.020000 0.023333 0.026667 0.030000 0.033333 0.036667 0.040000 0.043333 0.046667 0.050000 0.053333 0.056667 0.060000 0.063333 0.066667 0.070000 0.073333 0.076667 0.080000 0.083333 0.086667 0.090000 0.093333 0.096667 0.100000 0.103333 0.106667 0.110000 0.113333 0.116667 0.120000 0.123333 0.126667 0.130000 0.133333 0.136667 0.140000 0.143333 0.146667 0.150000 0.153333 0.156667 0.160000 0.163333 0.166667 0.170000 0.173333 0.176667 0.180000 0.183333 0.186667 0.190000 0.193333 0.196667 0.200000 0.203333 0.206667 0.210000 0.213333 0.216667 0.220000 0.223333 0.226667 0.230000 0.233333 0.236667 0.240000 0.243333 0.246667 0.250000 0.253333 0.256667 0.260000 0.263333 0.266667 0.270000 0.273333 0.276667 0.280000 0.283333 0.286667 0.290000 0.293333 0.296667 0.300000 0.303333 0.306667 0.310000 0.313333 0.316667 0.320000 0.323333 0.326667 0.330000 0.333333 0.336667 0.340000 0.343333 0.346667 0.350000 0.353333 0.356667 0.360000 0.363333 0.366667 0.370000 0.373333 0.376667 0.380000 0.383333 0.386667 0.390000 0.393333 0.396667 0.400000 0.403333 0.406667 0.410000 0.413333 0.416667 0.420000 0.423333 0.426667 0.430000 0.433333 0.436667 0.440000 0.443333 0.446667 0.450000 0.453333 0.456667 0.460000 0.463333 0.466667 0.470000 0.473333 0.476667 0.480000 0.483333 0.486667 0.490000 0.493333 0.496667 0.500000 0.503333 0.506667 0.510000 0.513333 0.516667 0.520000 0.523333 0.526667 0.530000 0.533333 0.536667 0.540000 0.543333 0.546667 0.550000 0.553333 0.556667 0.560000 0.563333 0.566667 0.570000 0.573333 0.576667 0.580000 0.583333 0.586667 0.590000 0.593333 0.596667 0.600000 0.603333 0.606667 0.610000 0.613333 0.616667 0.620000 0.623333 0.626667 0.630000 0.633333 0.636667 0.640000 0.643333 0.646667 0.650000 0.653333 0.656667 0.660000 0.663333 0.666667 0.670000 0.673333 0.676667 0.680000 0.683333 0.686667 0.690000 0.693333 0.696667 0.700000 0.703333 0.706667 0.710000 0.713333 0.716667 0.720000 0.723333 0.726667 0.730000 0.733333 0.736667 0.740000 0.743333 0.746667 0.750000 0.753333 0.756667 0.760000 0.763333 0.766667 0.770000 0.773333 0.776667 0.780000 0.783333 0.786667 0.790000 0.793333 0.796667 0.800000 0.803333 0.806667 0.810000 0.813333 0.816667 0.820000 0.823333 0.826667 0.830000 0.833333 0.836667 0.840000 0.843333 0.846667 0.850000 0.853333 0.856667 0.860000 0.863333 0.866667 0.870000 0.873333 0.876667 0.880000 0.883333 0.886667 0.890000 0.893333 0.896667 0.900000 0.903333 0.906667 0.910000 0.913333 0.916667 0.920000 0.923333 0.926667 0.930000 0.933333 0.936667 0.940000 0.943333 0.946667 0.950000 0.953333 0.956667 0.960000 0.963333 0.966667 0.970000 0.973333 0.976667 0.980000 0.983333 0.986667 0.990000 0.993333 0.996667 1.000000 
Y_COORDINATES 301 double
0.000000 0.003333 0.006667 0.010000 0.013333 0.016667 0.020000 0.023333 0.026667 0.030000 0.033333 0.036667 0.040000 0.043333 0.046667 0.050000 0.053333 0.056667 0.060000 0.063333 0.066667 0.070000 0.073333 0.076667 0.080000 0.083333 0.086667 0.090000 0.093333 0.096667 0.100000 0.103333 0.106667 0.110000 0.113333 0.116667 0.120000 0.123333 0.126667 0.130000 0.133333 0.136667 0.140000 0.143333 0.146667 0.150000 0.153333 0.156667 0.160000 0.163333 0.166667 0.170000 0.173333 0.176667 0.180000 0.183333 0.186667 0.190000 0.193333 0.196667 0.200000 0.203333 0.206667 0.210000 0.213333 0.216667 0.220000 0.223333 0.226667 0.230000 0.233333 0.236667 0.240000 0.243333 0.246667 0.250000 0.253333 0.256667 0.260000 0.263333 0.266667 0.270000 0.273333 0.276667 0.280000 0.283333 0.286667 0.290000 0.293333 0.296667 0.300000 0.303333 0.306667 0.310000 0.313333 0.316667 0.320000 0.323333 0.326667 0.330000 0.333333 0.336667 0.340000 0.343333 0.346667 0.350000 0.353333 0.356667 0.360000 0.363333 0.366667 0.370000 0.373333 0.376667 0.380000 0.383333 0.386667 0.390000 0.393333 0.396667 0.400000 0.403333 0.406667 0.410000 0.413333 0.416667 0.420000 0.423333 0.426667 0.430000 0.433333 0.436667 0.440000 0.443333 0.446667 0.450000 0.453333 0.456667 0.460000 0.463333 0.466667 0.470000 0.473333 0.476667 0.480000 0.483333 0.486667 0.490000 0.493333 0.496667 0.500000 0.503333 0.506667 0.510000 0.513333 0.516667 0.520000 0.523333 0.526667 0.530000 0.533333 0.536667 0.540000 0.543333 0.546667 0.550000 0.553333 0.556667 0.560000 0.563333 0.566667 0.570000 0.573333 0.576667 0.580000 0.583333 0.586667 0.590000 0.593333 0.596667 0.600000 0.603333 0.606667 0.610000 0.613333 0.616667 0.620000 0.623333 0.626667 0.630000 0.633333 0.636667 0.640000 0.643333 0.646667 0.650000 0.653333 0.656667 0.660000 0.663333 0.666667 0.670000 0.673333 0.676667 0.680000 0.683333 0.686667 0.690000 0.693333 0.696667 0.700000 0.703333 0.706667 0.710000 0.713333 0.716667 0.720000 0.723333 0.726667 0.730000 0.733333 0.736667 0.740000 0.743333 0.746667 0.750000 0.753333 0.756667 0.760000 0.763333 0.766667 0.770000 0.773333 0.776667 0.780000 0.783333 0.786667 0.790000 0.793333 0.796667 0.800000 0.803333 0.806667 0.810000 0.813333 0.816667 0.820000 0.823333 0.826667 0.830000 0.833333 0.836667 0.840000 0.843333 0.846667 0.850000 0.853333 0.856667 0.860000 0.863333 0.866667 0.870000 0.873333 0.876667 0.880000 0.883333 0.886667 0.890000 0.893333 0.896667 0.900000 0.903333 0.906667 0.910000 0.913333 0.916667 0.920000 0.923333 0.926667 0.930000 0.933333 0.936667 0.940000 0.943333 0.946667 0.950000 0.953333 0.956667 0.960000 0.963333 0.966667 0.970000 0.973333 0.976667 0.980000 0.983333 0.986667 0.990000 0.993333 0.996667 1.000000 
Z_COORDINATES 1 double
0
POINT_DATA 90601 
FIELD FieldData 1 
Concentração 1 90601 double 
0.000000 
0.000000 
0.000000 
0.000000 
0.000000 
0.000000 
0.000000 
0.000000 
0.000000 
0.000000 
0.000000 
0.000000 
0.000000 
0.000000 
0.000000 
0.000000 
0.000000 
0.000000 
0.000000 
0.000000 
0.000000 
0.000000 
0.000000 
0.000000 
0.000000 
0.000000 
0.000000 
0.000000 
0.000000 
0.000000 
0.000000 
0.000000 
0.000000 
0.000000 
0.000000 
0.000000 
0.000000 
0.000000 
0.000000 
0.000000 
0.000000 
0.000000 
0.000000 
0.000000 
0.000000 
0.000000 
0.000000 
0.000000 
0.000000 
0.000000 
0.000000 
0.000000 
0.000000 
0.000000 
0.000000 
0.000000 
0.000000 
0.000000 
0.000000 
0.000000 
0.000000 
0.000000 
0.000000 
0.000000 
0.000000 
0.000000 
0.000000 
0.000000 
0.000000 
0.000001 
0.000001 
0.000001 
0.000001 
0.000001 
0.000001 
0.000001 
0.000001 
0.000001 
0.000001 
0.000001 
0.000001 
0.000001 
0.000002 
0.000002 
0.000002 
0.000002 
0.000002 
0.000002 
0.000002 
0.000003 
0.000003 
0.000003 
0.000003 
0.000004 
0.000004 
0.000004 
0.000004 
0.000005 
0.000005 
0.000005 
0.000006 
0.000006 
0.000007 
0.000007 
0.000008 
0.000008 
0.000009 
0.000010 
0.000010 
0.000011 
0.000012 
0.000013 
0.000014 
0.000014 
0.000015 
0.000017 
0.000018 
0.000019 
0.000020 
0.000021 
0.000023 
0.000024 
0.000026 
0.000028 
0.000029 
0.000031 
0.000033 
0.000035 
0.000038 
0.000040 
0.000042 
0.000045 
0.000048 
0.000051 
0.000054 
0.000057 
0.000060 
0.000064 
0.000068 
0.000071 
0.000076 
0.000080 
0.000084 
0.000089 
0.000094 
0.000099 
0.000105 
0.000111 
0.000117 
0.000123 
0.000129 
0.000136 
0.000143 
0.000151 
0.000159 
0.000167 
0.000175 
0.000184 
0.000193 
0.000203 
0.000213 
0.000223 
0.000234 
0.000245 
0.000256 
0.000268 
0.000281 
0.000294 
0.000307 
0.000321 
0.000335 
0.000350 
0.000366 
0.000382 
0.000398 
0.000415 
0.000432 
0.000450 
0.000469 
0.000488 
0.000508 
0.000528 
0.000549 
0.000571 
0.000593 
0.000616 
0.000639 
0.000663 
0.000688 
0.000713 
0.000739 
0.000766 
0.000793 
0.000821 
0.000849 
0.000879 
0.000908 
0.000939 
0.000970 
0.001001 
0.001034 
0.001067 
0.001100 
0.001135 
0.001169 
0.001205 
0.001241 
0.001278 
0.001315 
0.001352 
0.001391 
0.001430 
0.001469 
0.001509 
0.001550 
0.001591 
0.001632 
0.001674 
0.001716 
0.001759 
0.001802 
0.001846 
0.001890 
0.001934 
0.001979 
0.002024 
0.002070 
0.002115 
0.002161 
0.002207 
0.002253 
0.002300 
0.002347 
0.002393 
0.002440 
0.002487 
0.002534 
0.002581 
0.002628 
0.002675 
0.002722 
0.002769 
0.002816 
0.002863 
0.002909 
0.002955 
0.003002 
0.003047 
0.003093 
0.003138 
0.003183 
0.003228 
0.003272 
0.003316 
0.003359 
0.003402 
0.003445 
0.003487 
0.003528 
0.003569 
0.003609 
0.003649 
0.003688 
0.003726 
0.003763 
0.003800 
0.003837 
0.003872 
0.003906 
0.003940 
0.003973 
0.004005 
0.004037 
0.004067 
0.004096 
0.004125 
0.004153 
0.004179 
0.004205 
0.004229 
0.004253 
0.004276 
0.004297 
0.004318 
0.004337 
0.004356 
0.004373 
0.004389 
0.004404 
0.004418 
0.004431 
0.004443 
0.004453 
0.004462 
0.004471 
0.004478 
0.004484 
0.004488 
0.004492 
0.004494 
0.004495 
0.000000 
0.000000 
0.000000 
0.000000 
0.000000 
0.000000 
0.000000 
0.000000 
0.000000 
0.000000 
0.000000 
0.000000 
0.000000 
0.000000 
0.000000 
0.000000 
0.000000 
0.000000 
0.000000 
0.000000 
0.000000 
0.000000 
0.000000 
0.000000 
0.000000 
0.000000 
0.000000 
0.000000 
0.000000 
0.000000 
0.000000 
0.000000 
0.000000 
0.000000 
0.000000 
0.000000 
0.000000 
0.000000 
0.000000 
0.000000 
0.000000 
0.000000 
0.000000 
0.000000 
0.000000 
0.000000 
0.000000 
0.000000 
0.000000 
0.000000 
0.000000 
0.000000 
0.000000 
0.000000 
0.000000 
0.000000 
0.000000 
0.000000 
0.000000 
0.000000 
0.000000 
0.000001 
0.000001 
0.000001 
0.000001 
0.000001 
0.000001 
0.000001 
0.000001 
0.000001 
0.000001 
0.000001 
0.000001 
0.000001 
0.000002 
0.000002 
0.000002 
0.000002 
0.000002 
0.000002 
0.000003 
0.000003 
0.000003 
0.000003 
0.000004 
0.000004 
0.000004 
0.000005 
0.000005 
0.000005 
0.000006 
0.000006 
0.000007 
0.000007 
0.000008 
0.000008 
0.000009 
0.000010 
0.000010 
0.000011 
0.000012 
0.000013 
0.000014 
0.000015 
0.000016 
0.000017 
0.000018 
0.000019 
0.000021 
0.000022 
0.000024 
0.000025 
0.000027 
0.000029 
0.000031 
0.000033 
0.000035 
0.000038 
0.000040 
0.000043 
0.000046 
0.000049 
0.000052 
0.000056 
0.000059 
0.000063 
0.000067 
0.000071 
0.000076 
0.000080 
0.000085 
0.000090 
0.000096 
0.000102 
0.000108 
0.000114 
0.000121 
0.000128 
0.000136 
0.000144 
0.000152 
0.000161 
0.000170 
0.000179 
0.000189 
0.000200 
0.000211 
0.000222 
0.000234 
0.000247 
0.000260 
0.000274 
0.000288 
0.000303 
0.000319 
0.000335 
0.000352 
0.000370 
0.000388 
0.000407 
0.000427 
0.000448 
0.000469 
0.000492 
0.000515 
0.000539 
0.000564 
0.000590 
0.000617 
0.000645 
0.000674 
0.000704 
0.000735 
0.000766 
0.000799 
0.000833 
0.000869 
0.000905 
0.000942 
0.000981 
0.001021 
0.001061 
0.001103 
0.001147 
0.001191 
0.001237 
0.001284 
0.001332 
0.001382 
0.001432 
0.001484 
0.001538 
0.001592 
0.001648 
0.001705 
0.001764 
0.001824 
0.001885 
0.001947 
0.002010 
0.002075 
0.002141 
0.002209 
0.002277 
0.002347 
0.002418 
0.002490 
0.002564 
0.002639 
0.002714 
0.002791 
0.002869 
0.002948 
0.003028 
0.003109 
0.003192 
0.003275 
0.003359 
0.003444 
0.003529 
0.003616 
0.003703 
0.003792 
0.003881 
0.003970 
0.004060 
0.004151 
0.004243 
0.004334 
0.004427 
0.004519 
0.004612 
0.004706 
0.004800 
0.004893 
0.004987 
0.005082 
0.005176 
0.005270 
0.005364 
0.005458 
0.005552 
0.005646 
0.005739 
0.005832 
0.005925 
0.006017 
0.006109 
0.006200 
0.006291 
0.006381 
0.006470 
0.006559 
0.006646 
0.006733 
0.006819 
0.006904 
0.006988 
0.007071 
0.007152 
0.007233 
0.007312 
0.007390 
0.007466 
0.007542 
0.007615 
0.007688 
0.007758 
0.007828 
0.007895 
0.007961 
0.008025 
0.008088 
0.008149 
0.008207 
0.008264 
0.008320 
0.008373 
0.008424 
0.008473 
0.008521 
0.008566 
0.008609 
0.008650 
0.008689 
0.008725 
0.008760 
0.008792 
0.008822 
0.008850 
0.008876 
0.008899 
0.008920 
0.008939 
0.008955 
0.008970 
0.008981 
0.008991 
0.008998 
0.009003 
0.009005 
0.000000 
0.000000 
0.000000 
0.000000 
0.000000 
0.000000 
0.000000 
0.000000 
0.000000 
0.000000 
0.000000 
0.000000 
0.000000 
0.000000 
0.000000 
0.000000 
0.000000 
0.000000 
0.000000 
0.000000 
0.000000 
0.000000 
0.000000 
0.000000 
0.000000 
0.000000 
0.000000 
0.000000 
0.000000 
0.000000 
0.000000 
0.000000 
0.000000 
0.000000 
0.000000 
0.000000 
0.000000 
0.000000 
0.000000 
0.000000 
0.000000 
0.000000 
0.000000 
0.000000 
0.000000 
0.000000 
0.000000 
0.000000 
0.000000 
0.000000 
0.000000 
0.000000 
0.000000 
0.000000 
0.000000 
0.000000 
0.000001 
0.000001 
0.000001 
0.000001 
0.000001 
0.000001 
0.000001 
0.000001 
0.000001 
0.000001 
0.000001 
0.000001 
0.000001 
0.000002 
0.000002 
0.000002 
0.000002 
0.000002 
0.000002 
0.000003 
0.000003 
0.000003 
0.000003 
0.000004 
0.000004 
0.000004 
0.000005 
0.000005 
0.000005 
0.000006 
0.000006 
0.000007 
0.000007 
0.000008 
0.000009 
0.000009 
0.000010 
0.000011 
0.000012 
0.000012 
0.000013 
0.000014 
0.000016 
0.000017 
0.000018 
0.000019 
0.000021 
0.000022 
0.000024 
0.000026 
0.000027 
0.000029 
0.000031 
0.000034 
0.000036 
0.000039 
0.000041 
0.000044 
0.000047 
0.000050 
0.000054 
0.000057 
0.000061 
0.000065 
0.000069 
0.000074 
0.000079 
0.000084 
0.000089 
0.000095 
0.000101 
0.000108 
0.000114 
0.000121 
0.000129 
0.000137 
0.000145 
0.000154 
0.000163 
0.000173 
0.000183 
0.000194 
0.000205 
0.000217 
0.000230 
0.000243 
0.000257 
0.000271 
0.000286 
0.000302 
0.000319 
0.000336 
0.000354 
0.000373 
0.000393 
0.000414 
0.000436 
0.000458 
0.000482 
0.000506 
0.000532 
0.000559 
0.000587 
0.000616 
0.000646 
0.000677 
0.000710 
0.000743 
0.000779 
0.000815 
0.000853 
0.000892 
0.000933 
0.000975 
0.001018 
0.001063 
0.001110 
0.001158 
0.001208 
0.001259 
0.001312 
0.001367 
0.001423 
0.001482 
0.001542 
0.001603 
0.001667 
0.001732 
0.001799 
0.001868 
0.001939 
0.002012 
0.002086 
0.002163 
0.002241 
0.002322 
0.002404 
0.002488 
0.002575 
0.002663 
0.002753 
0.002845 
0.002939 
0.003034 
0.003132 
0.003232 
0.003333 
0.003437 
0.003542 
0.003649 
0.003758 
0.003868 
0.003981 
0.004095 
0.004210 
0.004328 
0.004447 
0.004568 
0.004690 
0.004813 
0.004938 
0.005065 
0.005193 
0.005322 
0.005452 
0.005584 
0.005716 
0.005850 
0.005985 
0.006121 
0.006257 
0.006394 
0.006533 
0.006671 
0.006811 
0.006951 
0.007091 
0.007232 
0.007373 
0.007514 
0.007656 
0.007797 
0.007939 
0.008080 
0.008222 
0.008363 
0.008503 
0.008644 
0.008784 
0.008923 
0.009061 
0.009199 
0.009336 
0.009472 
0.009607 
0.009741 
0.009874 
0.010006 
0.010136 
0.010265 
0.010393 
0.010518 
0.010643 
0.010765 
0.010886 
0.011005 
0.011122 
0.011237 
0.011349 
0.011460 
0.011569 
0.011675 
0.011778 
0.011880 
0.011979 
0.012075 
0.012169 
0.012260 
0.012348 
0.012434 
0.012516 
0.012596 
0.012673 
0.012747 
0.012818 
0.012885 
0.012950 
0.013012 
0.013070 
0.013125 
0.013177 
0.013225 
0.013270 
0.013312 
0.013350 
0.013385 
0.013417 
0.013445 
0.013470 
0.013491 
0.013508 
0.013522 
0.013533 
0.013540 
0.013544 
0.000000 
0.000000 
0.000000 
0.000000 
0.000000 
0.000000 
0.000000 
0.000000 
0.000000 
0.000000 
0.000000 
0.000000 
0.000000 
0.000000 
0.000000 
0.000000 
0.000000 
0.000000 
0.000000 
0.000000 
0.000000 
0.000000 
0.000000 
0.000000 
0.000000 
0.000000 
0.000000 
0.000000 
0.000000 
0.000000 
0.000000 
0.000000 
0.000000 
0.000000 
0.000000 
0.000000 
0.000000 
0.000000 
0.000000 
0.000000 
0.000000 
0.000000 
0.000000 
0.000000 
0.000000 
0.000000 
0.000000 
0.000000 
0.000000 
0.000000 
0.000000 
0.000000 
0.000000 
0.000001 
0.000001 
0.000001 
0.000001 
0.000001 
0.000001 
0.000001 
0.000001 
0.000001 
0.000001 
0.000001 
0.000001 
0.000002 
0.000002 
0.000002 
0.000002 
0.000002 
0.000002 
0.000003 
0.000003 
0.000003 
0.000003 
0.000004 
0.000004 
0.000004 
0.000005 
0.000005 
0.000005 
0.000006 
0.000006 
0.000007 
0.000007 
0.000008 
0.000009 
0.000009 
0.000010 
0.000011 
0.000012 
0.000012 
0.000013 
0.000015 
0.000016 
0.000017 
0.000018 
0.000019 
0.000021 
0.000023 
0.000024 
0.000026 
0.000028 
0.000030 
0.000032 
0.000034 
0.000037 
0.000040 
0.000042 
0.000045 
0.000049 
0.000052 
0.000056 
0.000059 
0.000064 
0.000068 
0.000072 
0.000077 
0.000082 
0.000088 
0.000094 
0.000100 
0.000106 
0.000113 
0.000121 
0.000128 
0.000137 
0.000145 
0.000154 
0.000164 
0.000174 
0.000185 
0.000196 
0.000208 
0.000220 
0.000233 
0.000247 
0.000262 
0.000277 
0.000293 
0.000310 
0.000328 
0.000346 
0.000366 
0.000386 
0.000407 
0.000430 
0.000453 
0.000478 
0.000503 
0.000530 
0.000558 
0.000587 
0.000618 
0.000649 
0.000683 
0.000717 
0.000753 
0.000791 
0.000830 
0.000870 
0.000913 
0.000956 
0.001002 
0.001049 
0.001098 
0.001149 
0.001202 
0.001257 
0.001313 
0.001372 
0.001432 
0.001495 
0.001560 
0.001627 
0.001696 
0.001767 
0.001841 
0.001917 
0.001995 
0.002076 
0.002159 
0.002244 
0.002332 
0.002422 
0.002515 
0.002610 
0.002708 
0.002808 
0.002911 
0.003016 
0.003124 
0.003235 
0.003348 
0.003464 
0.003582 
0.003703 
0.003826 
0.003952 
0.004081 
0.004212 
0.004346 
0.004482 
0.004621 
0.004762 
0.004905 
0.005051 
0.005200 
0.005350 
0.005503 
0.005658 
0.005816 
0.005975 
0.006137 
0.006301 
0.006466 
0.006634 
0.006803 
0.006975 
0.007148 
0.007322 
0.007498 
0.007676 
0.007855 
0.008035 
0.008217 
0.008400 
0.008584 
0.008768 
0.008954 
0.009141 
0.009328 
0.009516 
0.009704 
0.009893 
0.010082 
0.010271 
0.010460 
0.010649 
0.010838 
0.011027 
0.011216 
0.011404 
0.011591 
0.011778 
0.011964 
0.012149 
0.012333 
0.012516 
0.012698 
0.012878 
0.013057 
0.013234 
0.013410 
0.013584 
0.013756 
0.013926 
0.014094 
0.014260 
0.014423 
0.014584 
0.014743 
0.014899 
0.015052 
0.015203 
0.015350 
0.015495 
0.015636 
0.015775 
0.015910 
0.016042 
0.016170 
0.016295 
0.016416 
0.016534 
0.016648 
0.016758 
0.016865 
0.016967 
0.017066 
0.017160 
0.017250 
0.017336 
0.017418 
0.017496 
0.017569 
0.017638 
0.017703 
0.017763 
0.017819 
0.017870 
0.017916 
0.017958 
0.017996 
0.018029 
0.018057 
0.018080 
0.018099 
0.018113 
0.018122 
0.018127 
0.000000 
0.000000 
0.000000 
0.000000 
0.000000 
0.000000 
0.000000 
0.000000 
0.000000 
0.000000 
0.000000 
0.000000 
0.000000 
0.000000 
0.000000 
0.000000 
0.000000 
0.000000 
0.000000 
0.000000 
0.000000 
0.000000 
0.000000 
0.000000 
0.000000 
0.000000 
0.000000 
0.000000 
0.000000 
0.000000 
0.000000 
0.000000 
0.000000 
0.000000 
0.000000 
0.000000 
0.000000 
0.000000 
0.000000 
0.000000 
0.000000 
0.000000 
0.000000 
0.000000 
0.000000 
0.000000 
0.000000 
0.000000 
0.000000 
0.000000 
0.000001 
0.000001 
0.000001 
0.000001 
0.000001 
0.000001 
0.000001 
0.000001 
0.000001 
0.000001 
0.000001 
0.000001 
0.000002 
0.000002 
0.000002 
0.000002 
0.000002 
0.000002 
0.000003 
0.000003 
0.000003 
0.000003 
0.000004 
0.000004 
0.000004 
0.000005 
0.000005 
0.000005 
0.000006 
0.000006 
0.000007 
0.000007 
0.000008 
0.000009 
0.000009 
0.000010 
0.000011 
0.000012 
0.000013 
0.000014 
0.000015 
0.000016 
0.000017 
0.000018 
0.000020 
0.000021 
0.000023 
0.000025 
0.000027 
0.000029 
0.000031 
0.000033 
0.000035 
0.000038 
0.000041 
0.000044 
0.000047 
0.000050 
0.000054 
0.000058 
0.000062 
0.000066 
0.000071 
0.000075 
0.000081 
0.000086 
0.000092 
0.000098 
0.000105 
0.000112 
0.000119 
0.000127 
0.000135 
0.000144 
0.000153 
0.000163 
0.000173 
0.000184 
0.000196 
0.000208 
0.000221 
0.000234 
0.000249 
0.000264 
0.000279 
0.000296 
0.000314 
0.000332 
0.000351 
0.000372 
0.000393 
0.000415 
0.000439 
0.000464 
0.000489 
0.000517 
0.000545 
0.000575 
0.000606 
0.000638 
0.000672 
0.000707 
0.000744 
0.000783 
0.000823 
0.000865 
0.000909 
0.000955 
0.001002 
0.001052 
0.001103 
0.001156 
0.001212 
0.001270 
0.001329 
0.001391 
0.001456 
0.001523 
0.001592 
0.001663 
0.001737 
0.001814 
0.001893 
0.001975 
0.002060 
0.002147 
0.002238 
0.002331 
0.002427 
0.002525 
0.002627 
0.002732 
0.002840 
0.002951 
0.003065 
0.003182 
0.003302 
0.003425 
0.003552 
0.003682 
0.003815 
0.003951 
0.004091 
0.004233 
0.004379 
0.004528 
0.004681 
0.004837 
0.004996 
0.005158 
0.005323 
0.005491 
0.005663 
0.005838 
0.006016 
0.006196 
0.006380 
0.006567 
0.006757 
0.006949 
0.007145 
0.007343 
0.007544 
0.007747 
0.007953 
0.008161 
0.008372 
0.008585 
0.008801 
0.009018 
0.009237 
0.009459 
0.009682 
0.009907 
0.010134 
0.010362 
0.010591 
0.010822 
0.011054 
0.011288 
0.011522 
0.011757 
0.011992 
0.012229 
0.012466 
0.012703 
0.012940 
0.013177 
0.013415 
0.013652 
0.013888 
0.014125 
0.014360 
0.014595 
0.014829 
0.015062 
0.015294 
0.015525 
0.015754 
0.015982 
0.016208 
0.016432 
0.016654 
0.016874 
0.017092 
0.017307 
0.017520 
0.017730 
0.017937 
0.018142 
0.018343 
0.018542 
0.018737 
0.018929 
0.019117 
0.019301 
0.019482 
0.019659 
0.019832 
0.020001 
0.020166 
0.020327 
0.020483 
0.020634 
0.020782 
0.020924 
0.021062 
0.021195 
0.021323 
0.021446 
0.021563 
0.021676 
0.021784 
0.021886 
0.021983 
0.022075 
0.022161 
0.022242 
0.022317 
0.022386 
0.022450 
0.022508 
0.022561 
0.022607 
0.022648 
0.022683 
0.022713 
0.022736 
0.022754 
0.022766 
0.022771 
0.000000 
0.000000 
0.000000 
0.000000 
0.000000 
0.000000 
0.000000 
0.000000 
0.000000 
0.000000 
0.000000 
0.000000 
0.000000 
0.000000 
0.000000 
0.000000 
0.000000 
0.000000 
0.000000 
0.000000 
0.000000 
0.000000 
0.000000 
0.000000 
0.000000 
0.000000 
0.000000 
0.000000 
0.000000 
0.000000 
0.000000 
0.000000 
0.000000 
0.000000 
0.000000 
0.000000 
0.000000 
0.000000 
0.000000 
0.000000 
0.000000 
0.000000 
0.000000 
0.000000 
0.000000 
0.000000 
0.000000 
0.000000 
0.000001 
0.000001 
0.000001 
0.000001 
0.000001 
0.000001 
0.000001 
0.000001 
0.000001 
0.000001 
0.000001 
0.000001 
0.000002 
0.000002 
0.000002 
0.000002 
0.000002 
0.000002 
0.000003 
0.000003 
0.000003 
0.000003 
0.000004 
0.000004 
0.000004 
0.000005 
0.000005 
0.000006 
0.000006 
0.000007 
0.000007 
0.000008 
0.000008 
0.000009 
0.000010 
0.000011 
0.000011 
0.000012 
0.000013 
0.000014 
0.000015 
0.000017 
0.000018 
0.000019 
0.000021 
0.000023 
0.000024 
0.000026 
0.000028 
0.000030 
0.000033 
0.000035 
0.000038 
0.000040 
0.000043 
0.000047 
0.000050 
0.000054 
0.000057 
0.000061 
0.000066 
0.000070 
0.000075 
0.000081 
0.000086 
0.000092 
0.000099 
0.000105 
0.000112 
0.000120 
0.000128 
0.000137 
0.000146 
0.000155 
0.000165 
0.000176 
0.000187 
0.000199 
0.000212 
0.000225 
0.000239 
0.000254 
0.000270 
0.000286 
0.000304 
0.000322 
0.000341 
0.000362 
0.000383 
0.000406 
0.000429 
0.000454 
0.000480 
0.000507 
0.000536 
0.000566 
0.000598 
0.000631 
0.000665 
0.000702 
0.000740 
0.000779 
0.000821 
0.000864 
0.000909 
0.000956 
0.001005 
0.001056 
0.001110 
0.001165 
0.001223 
0.001283 
0.001346 
0.001411 
0.001479 
0.001549 
0.001622 
0.001697 
0.001776 
0.001857 
0.001941 
0.002028 
0.002119 
0.002212 
0.002308 
0.002408 
0.002511 
0.002617 
0.002727 
0.002840 
0.002957 
0.003077 
0.003201 
0.003328 
0.003459 
0.003594 
0.003732 
0.003875 
0.004021 
0.004171 
0.004324 
0.004482 
0.004643 
0.004809 
0.004978 
0.005151 
0.005328 
0.005509 
0.005694 
0.005883 
0.006076 
0.006272 
0.006473 
0.006677 
0.006885 
0.007097 
0.007312 
0.007531 
0.007754 
0.007980 
0.008210 
0.008443 
0.008679 
0.008919 
0.009162 
0.009408 
0.009657 
0.009909 
0.010164 
0.010421 
0.010682 
0.010944 
0.011210 
0.011477 
0.011747 
0.012018 
0.012292 
0.012568 
0.012845 
0.013123 
0.013404 
0.013685 
0.013967 
0.014251 
0.014535 
0.014820 
0.015105 
0.015391 
0.015677 
0.015963 
0.016249 
0.016535 
0.016820 
0.017105 
0.017388 
0.017671 
0.017953 
0.018234 
0.018513 
0.018790 
0.019066 
0.019340 
0.019611 
0.019881 
0.020148 
0.020413 
0.020674 
0.020933 
0.021189 
0.021442 
0.021691 
0.021937 
0.022179 
0.022417 
0.022651 
0.022882 
0.023108 
0.023329 
0.023546 
0.023759 
0.023967 
0.024169 
0.024367 
0.024560 
0.024747 
0.024929 
0.025106 
0.025277 
0.025442 
0.025601 
0.025755 
0.025902 
0.026044 
0.026179 
0.026308 
0.026431 
0.026547 
0.026657 
0.026760 
0.026857 
0.026947 
0.027030 
0.027107 
0.027176 
0.027239 
0.027295 
0.027344 
0.027386 
0.027422 
0.027450 
0.027471 
0.027485 
0.027492 
0.000000 
0.000000 
0.000000 
0.000000 
0.000000 
0.000000 
0.000000 
0.000000 
0.000000 
0.000000 
0.000000 
0.000000 
0.000000 
0.000000 
0.000000 
0.000000 
0.000000 
0.000000 
0.000000 
0.000000 
0.000000 
0.000000 
0.000000 
0.000000 
0.000000 
0.000000 
0.000000 
0.000000 
0.000000 
0.000000 
0.000000 
0.000000 
0.000000 
0.000000 
0.000000 
0.000000 
0.000000 
0.000000 
0.000000 
0.000000 
0.000000 
0.000000 
0.000000 
0.000000 
0.000000 
0.000000 
0.000001 
0.000001 
0.000001 
0.000001 
0.000001 
0.000001 
0.000001 
0.000001 
0.000001 
0.000001 
0.000001 
0.000001 
0.000002 
0.000002 
0.000002 
0.000002 
0.000002 
0.000002 
0.000003 
0.000003 
0.000003 
0.000003 
0.000004 
0.000004 
0.000004 
0.000005 
0.000005 
0.000006 
0.000006 
0.000007 
0.000007 
0.000008 
0.000008 
0.000009 
0.000010 
0.000011 
0.000012 
0.000013 
0.000014 
0.000015 
0.000016 
0.000017 
0.000018 
0.000020 
0.000021 
0.000023 
0.000025 
0.000027 
0.000029 
0.000031 
0.000034 
0.000036 
0.000039 
0.000042 
0.000045 
0.000048 
0.000052 
0.000055 
0.000060 
0.000064 
0.000068 
0.000073 
0.000079 
0.000084 
0.000090 
0.000096 
0.000103 
0.000110 
0.000118 
0.000126 
0.000134 
0.000143 
0.000153 
0.000163 
0.000173 
0.000185 
0.000197 
0.000210 
0.000223 
0.000237 
0.000252 
0.000268 
0.000285 
0.000303 
0.000321 
0.000341 
0.000362 
0.000384 
0.000407 
0.000431 
0.000456 
0.000483 
0.000511 
0.000541 
0.000572 
0.000604 
0.000639 
0.000674 
0.000712 
0.000751 
0.000792 
0.000835 
0.000881 
0.000928 
0.000977 
0.001028 
0.001082 
0.001138 
0.001196 
0.001257 
0.001320 
0.001386 
0.001455 
0.001527 
0.001601 
0.001678 
0.001759 
0.001842 
0.001929 
0.002018 
0.002111 
0.002208 
0.002308 
0.002411 
0.002518 
0.002629 
0.002743 
0.002861 
0.002984 
0.003110 
0.003240 
0.003374 
0.003512 
0.003654 
0.003801 
0.003952 
0.004107 
0.004266 
0.004430 
0.004599 
0.004772 
0.004949 
0.005131 
0.005317 
0.005508 
0.005704 
0.005904 
0.006109 
0.006318 
0.006532 
0.006750 
0.006973 
0.007201 
0.007433 
0.007670 
0.007911 
0.008156 
0.008406 
0.008660 
0.008918 
0.009181 
0.009447 
0.009718 
0.009993 
0.010272 
0.010554 
0.010840 
0.011130 
0.011423 
0.011720 
0.012020 
0.012323 
0.012629 
0.012938 
0.013250 
0.013565 
0.013882 
0.014201 
0.014523 
0.014846 
0.015172 
0.015499 
0.015828 
0.016159 
0.016490 
0.016823 
0.017156 
0.017491 
0.017826 
0.018161 
0.018496 
0.018831 
0.019167 
0.019501 
0.019836 
0.020169 
0.020502 
0.020833 
0.021163 
0.021491 
0.021818 
0.022143 
0.022466 
0.022786 
0.023104 
0.023419 
0.023732 
0.024041 
0.024347 
0.024650 
0.024949 
0.025244 
0.025535 
0.025823 
0.026105 
0.026384 
0.026658 
0.026926 
0.027190 
0.027449 
0.027703 
0.027951 
0.028193 
0.028430 
0.028661 
0.028886 
0.029104 
0.029316 
0.029522 
0.029722 
0.029914 
0.030100 
0.030279 
0.030451 
0.030616 
0.030774 
0.030924 
0.031068 
0.031203 
0.031331 
0.031451 
0.031564 
0.031669 
0.031766 
0.031855 
0.031937 
0.032010 
0.032075 
0.032132 
0.032181 
0.032222 
0.032255 
0.032280 
0.032296 
0.032304 
0.000000 
0.000000 
0.000000 
0.000000 
0.000000 
0.000000 
0.000000 
0.000000 
0.000000 
0.000000 
0.000000 
0.000000 
0.000000 
0.000000 
0.000000 
0.000000 
0.000000 
0.000000 
0.000000 
0.000000 
0.000000 
0.000000 
0.000000 
0.000000 
0.000000 
0.000000 
0.000000 
0.000000 
0.000000 
0.000000 
0.000000 
0.000000 
0.000000 
0.000000 
0.000000 
0.000000 
0.000000 
0.000000 
0.000000 
0.000000 
0.000000 
0.000000 
0.000000 
0.000000 
0.000001 
0.000001 
0.000001 
0.000001 
0.000001 
0.000001 
0.000001 
0.000001 
0.000001 
0.000001 
0.000001 
0.000001 
0.000002 
0.000002 
0.000002 
0.000002 
0.000002 
0.000002 
0.000003 
0.000003 
0.000003 
0.000003 
0.000004 
0.000004 
0.000004 
0.000005 
0.000005 
0.000006 
0.000006 
0.000007 
0.000007 
0.000008 
0.000008 
0.000009 
0.000010 
0.000011 
0.000012 
0.000013 
0.000014 
0.000015 
0.000016 
0.000017 
0.000019 
0.000020 
0.000022 
0.000023 
0.000025 
0.000027 
0.000029 
0.000032 
0.000034 
0.000037 
0.000039 
0.000042 
0.000046 
0.000049 
0.000053 
0.000056 
0.000061 
0.000065 
0.000070 
0.000075 
0.000080 
0.000086 
0.000092 
0.000099 
0.000105 
0.000113 
0.000121 
0.000129 
0.000138 
0.000147 
0.000157 
0.000168 
0.000179 
0.000191 
0.000203 
0.000217 
0.000231 
0.000246 
0.000261 
0.000278 
0.000296 
0.000314 
0.000334 
0.000355 
0.000376 
0.000399 
0.000424 
0.000449 
0.000476 
0.000504 
0.000534 
0.000566 
0.000598 
0.000633 
0.000669 
0.000707 
0.000747 
0.000789 
0.000833 
0.000879 
0.000927 
0.000977 
0.001030 
0.001085 
0.001142 
0.001202 
0.001265 
0.001330 
0.001398 
0.001469 
0.001543 
0.001621 
0.001701 
0.001784 
0.001871 
0.001961 
0.002055 
0.002152 
0.002253 
0.002357 
0.002466 
0.002578 
0.002695 
0.002815 
0.002940 
0.003069 
0.003202 
0.003339 
0.003482 
0.003628 
0.003780 
0.003936 
0.004096 
0.004262 
0.004432 
0.004608 
0.004788 
0.004974 
0.005164 
0.005360 
0.005560 
0.005766 
0.005977 
0.006194 
0.006415 
0.006642 
0.006875 
0.007112 
0.007355 
0.007603 
0.007856 
0.008115 
0.008378 
0.008647 
0.008921 
0.009200 
0.009484 
0.009774 
0.010068 
0.010367 
0.010670 
0.010979 
0.011292 
0.011610 
0.011932 
0.012258 
0.012589 
0.012923 
0.013262 
0.013604 
0.013951 
0.014301 
0.014654 
0.015010 
0.015370 
0.015733 
0.016098 
0.016467 
0.016837 
0.017210 
0.017585 
0.017962 
0.018341 
0.018721 
0.019103 
0.019486 
0.019870 
0.020254 
0.020639 
0.021025 
0.021410 
0.021796 
0.022181 
0.022565 
0.022949 
0.023332 
0.023714 
0.024094 
0.024473 
0.024850 
0.025225 
0.025598 
0.025968 
0.026335 
0.026700 
0.027061 
0.027419 
0.027774 
0.028125 
0.028471 
0.028814 
0.029152 
0.029486 
0.029814 
0.030138 
0.030457 
0.030770 
0.031078 
0.031380 
0.031676 
0.031966 
0.032250 
0.032527 
0.032798 
0.033061 
0.033318 
0.033568 
0.033811 
0.034046 
0.034274 
0.034494 
0.034707 
0.034911 
0.035108 
0.035296 
0.035476 
0.035648 
0.035811 
0.035966 
0.036112 
0.036250 
0.036379 
0.036498 
0.036609 
0.036711 
0.036804 
0.036887 
0.036962 
0.037027 
0.037083 
0.037130 
0.037167 
0.037195 
0.037214 
0.037223 
0.000000 
0.000000 
0.000000 
0.000000 
0.000000 
0.000000 
0.000000 
0.000000 
0.000000 
0.000000 
0.000000 
0.000000 
0.000000 
0.000000 
0.000000 
0.000000 
0.000000 
0.000000 
0.000000 
0.000000 
0.000000 
0.000000 
0.000000 
0.000000 
0.000000 
0.000000 