# vtk DataFile Version 3.0
results.vtk
ASCII
DATASET RECTILINEAR_GRID
DIMENSIONS 301 301 1
X_COORDINATES 301 double
0.000000 0.003333 0.006667 0.010000 0.013333 0.016667 0.020000 0.023333 0.026667 0.030000 0.033333 0.036667 0.040000 0.043333 0.046667 0.050000 0.053333 0.056667 0.060000 0.063333 0.066667 0.070000 0.073333 0.076667 0.080000 0.083333 0.086667 0.090000 0.093333 0.096667 0.100000 0.103333 0.106667 0.110000 0.113333 0.116667 0.120000 0.123333 0.126667 0.130000 0.133333 0.136667 0.140000 0.143333 0.146667 0.150000 0.153333 0.156667 0.160000 0.163333 0.166667 0.170000 0.173333 0.176667 0.180000 0.183333 0.186667 0.190000 0.193333 0.196667 0.200000 0.203333 0.206667 0.210000 0.213333 0.216667 0.220000 0.223333 0.226667 0.230000 0.233333 0.236667 0.240000 0.243333 0.246667 0.250000 0.253333 0.256667 0.260000 0.263333 0.266667 0.270000 0.273333 0.276667 0.280000 0.283333 0.286667 0.290000 0.293333 0.296667 0.300000 0.303333 0.306667 0.310000 0.313333 0.316667 0.320000 0.323333 0.326667 0.330000 0.333333 0.336667 0.340000 0.343333 0.346667 0.350000 0.353333 0.356667 0.360000 0.363333 0.366667 0.370000 0.373333 0.376667 0.380000 0.383333 0.386667 0.390000 0.393333 0.396667 0.400000 0.403333 0.406667 0.410000 0.413333 0.416667 0.420000 0.423333 0.426667 0.430000 0.433333 0.436667 0.440000 0.443333 0.446667 0.450000 0.453333 0.456667 0.460000 0.463333 0.466667 0.470000 0.473333 0.476667 0.480000 0.483333 0.486667 0.490000 0.493333 0.496667 0.500000 0.503333 0.506667 0.510000 0.513333 0.516667 0.520000 0.523333 0.526667 0.530000 0.533333 0.536667 0.540000 0.543333 0.546667 0.550000 0.553333 0.556667 0.560000 0.563333 0.566667 0.570000 0.573333 0.576667 0.580000 0.583333 0.586667 0.590000 0.593333 0.596667 0.600000 0.603333 0.606667 0.610000 0.613333 0.616667 0.620000 0.623333 0.626667 0.630000 0.633333 0.636667 0.640000 0.643333 0.646667 0.650000 0.653333 0.656667 0.660000 0.663333 0.666667 0.670000 0.673333 0.676667 0.680000 0.683333 0.686667 0.690000 0.693333 0.696667 0.700000 0.703333 0.706667 0.710000 0.713333 0.716667 0.720000 0.723333 0.726667 0.730000 0.733333 0.736667 0.740000 0.743333 0.746667 0.750000 0.753333 0.756667 0.760000 0.763333 0.766667 0.770000 0.773333 0.776667 0.780000 0.783333 0.786667 0.790000 0.793333 0.796667 0.800000 0.803333 0.806667 0.810000 0.813333 0.816667 0.820000 0.823333 0.826667 0.830000 0.833333 0.836667 0.840000 0.843333 0.846667 0.850000 0.853333 0.856667 0.860000 0.863333 0.866667 0.870000 0.873333 0.876667 0.880000 0.883333 0.886667 0.890000 0.893333 0.896667 0.900000 0.903333 0.906667 0.910000 0.913333 0.916667 0.920000 0.923333 0.926667 0.930000 0.933333 0.936667 0.940000 0.943333 0.946667 0.950000 0.953333 0.956667 0.960000 0.963333 0.966667 0.970000 0.973333 0.976667 0.980000 0.983333 0.986667 0.990000 0.993333 0.996667 1.000000 
Y_COORDINATES 301 double
0.000000 0.003333 0.006667 0.010000 0.013333 0.016667 0.020000 0.023333 0.026667 0.030000 0.033333 0.036667 0.040000 0.043333 0.046667 0.050000 0.053333 0.056667 0.060000 0.063333 0.066667 0.070000 0.073333 0.076667 0.080000 0.083333 0.086667 0.090000 0.093333 0.096667 0.100000 0.103333 0.106667 0.110000 0.113333 0.116667 0.120000 0.123333 0.126667 0.130000 0.133333 0.136667 0.140000 0.143333 0.146667 0.150000 0.153333 0.156667 0.160000 0.163333 0.166667 0.170000 0.173333 0.176667 0.180000 0.183333 0.186667 0.190000 0.193333 0.196667 0.200000 0.203333 0.206667 0.210000 0.213333 0.216667 0.220000 0.223333 0.226667 0.230000 0.233333 0.236667 0.240000 0.243333 0.246667 0.250000 0.253333 0.256667 0.260000 0.263333 0.266667 0.270000 0.273333 0.276667 0.280000 0.283333 0.286667 0.290000 0.293333 0.296667 0.300000 0.303333 0.306667 0.310000 0.313333 0.316667 0.320000 0.323333 0.326667 0.330000 0.333333 0.336667 0.340000 0.343333 0.346667 0.350000 0.353333 0.356667 0.360000 0.363333 0.366667 0.370000 0.373333 0.376667 0.380000 0.383333 0.386667 0.390000 0.393333 0.396667 0.400000 0.403333 0.406667 0.410000 0.413333 0.416667 0.420000 0.423333 0.426667 0.430000 0.433333 0.436667 0.440000 0.443333 0.446667 0.450000 0.453333 0.456667 0.460000 0.463333 0.466667 0.470000 0.473333 0.476667 0.480000 0.483333 0.486667 0.490000 0.493333 0.496667 0.500000 0.503333 0.506667 0.510000 0.513333 0.516667 0.520000 0.523333 0.526667 0.530000 0.533333 0.536667 0.540000 0.543333 0.546667 0.550000 0.553333 0.556667 0.560000 0.563333 0.566667 0.570000 0.573333 0.576667 0.580000 0.583333 0.586667 0.590000 0.593333 0.596667 0.600000 0.603333 0.606667 0.610000 0.613333 0.616667 0.620000 0.623333 0.626667 0.630000 0.633333 0.636667 0.640000 0.643333 0.646667 0.650000 0.653333 0.656667 0.660000 0.663333 0.666667 0.670000 0.673333 0.676667 0.680000 0.683333 0.686667 0.690000 0.693333 0.696667 0.700000 0.703333 0.706667 0.710000 0.713333 0.716667 0.720000 0.723333 0.726667 0.730000 0.733333 0.736667 0.740000 0.743333 0.746667 0.750000 0.753333 0.756667 0.760000 0.763333 0.766667 0.770000 0.773333 0.776667 0.780000 0.783333 0.786667 0.790000 0.793333 0.796667 0.800000 0.803333 0.806667 0.810000 0.813333 0.816667 0.820000 0.823333 0.826667 0.830000 0.833333 0.836667 0.840000 0.843333 0.846667 0.850000 0.853333 0.856667 0.860000 0.863333 0.866667 0.870000 0.873333 0.876667 0.880000 0.883333 0.886667 0.890000 0.893333 0.896667 0.900000 0.903333 0.906667 0.910000 0.913333 0.916667 0.920000 0.923333 0.926667 0.930000 0.933333 0.936667 0.940000 0.943333 0.946667 0.950000 0.953333 0.956667 0.960000 0.963333 0.966667 0.970000 0.973333 0.976667 0.980000 0.983333 0.986667 0.990000 0.993333 0.996667 1.000000 
Z_COORDINATES 1 double
0
POINT_DATA 90601 
FIELD FieldData 1 
Concentração 1 90601 double 
0.000000 
0.000000 
0.000000 
0.000000 
0.000000 
0.000000 
0.000000 
0.000000 
0.000000 
0.000000 
0.000000 
0.000000 
0.000000 
0.000000 
0.000000 
0.000000 
0.000000 
0.000000 
0.000000 
0.000000 
0.000000 
0.000000 
0.000000 
0.000000 
0.000000 
0.000000 
0.000000 
0.000000 
0.000000 
0.000000 
0.000000 
0.000000 
0.000000 
0.000000 
0.000000 
0.000000 
0.000000 
0.000000 
0.000000 
0.000000 
0.000000 
0.000000 
0.000000 
0.000000 
0.000000 
0.000000 
0.000000 
0.000000 
0.000000 
0.000000 
0.000000 
0.000000 
0.000000 
0.000000 
0.000000 
0.000000 
0.000000 
0.000000 
0.000000 
0.000000 
0.000000 
0.000000 
0.000000 
0.000000 
0.000000 
0.000000 
0.000000 
0.000000 
0.000000 
0.000000 
0.000000 
0.000000 
0.000000 
0.000001 
0.000001 
0.000001 
0.000001 
0.000001 
0.000001 
0.000001 
0.000001 
0.000001 
0.000001 
0.000001 
0.000001 
0.000001 
0.000001 
0.000002 
0.000002 
0.000002 
0.000002 
0.000002 
0.000002 
0.000002 
0.000003 
0.000003 
0.000003 
0.000003 
0.000004 
0.000004 
0.000004 
0.000004 
0.000005 
0.000005 
0.000006 
0.000006 
0.000006 
0.000007 
0.000007 
0.000008 
0.000008 
0.000009 
0.000010 
0.000010 
0.000011 
0.000012 
0.000013 
0.000013 
0.000014 
0.000015 
0.000016 
0.000017 
0.000019 
0.000020 
0.000021 
0.000022 
0.000024 
0.000025 
0.000027 
0.000029 
0.000030 
0.000032 
0.000034 
0.000036 
0.000039 
0.000041 
0.000043 
0.000046 
0.000049 
0.000052 
0.000055 
0.000058 
0.000061 
0.000065 
0.000068 
0.000072 
0.000076 
0.000080 
0.000085 
0.000089 
0.000094 
0.000099 
0.000105 
0.000110 
0.000116 
0.000122 
0.000128 
0.000135 
0.000142 
0.000149 
0.000156 
0.000164 
0.000172 
0.000180 
0.000189 
0.000198 
0.000207 
0.000217 
0.000227 
0.000238 
0.000248 
0.000260 
0.000271 
0.000283 
0.000296 
0.000309 
0.000322 
0.000336 
0.000350 
0.000364 
0.000379 
0.000395 
0.000411 
0.000428 
0.000445 
0.000462 
0.000480 
0.000498 
0.000517 
0.000537 
0.000557 
0.000577 
0.000598 
0.000620 
0.000642 
0.000665 
0.000688 
0.000711 
0.000736 
0.000760 
0.000785 
0.000811 
0.000837 
0.000864 
0.000892 
0.000919 
0.000948 
0.000976 
0.001006 
0.001036 
0.001066 
0.001097 
0.001128 
0.001159 
0.001191 
0.001224 
0.001257 
0.001290 
0.001324 
0.001358 
0.001393 
0.001428 
0.001463 
0.001498 
0.001534 
0.001570 
0.001607 
0.001643 
0.001680 
0.001718 
0.001755 
0.001792 
0.001830 
0.001868 
0.001906 
0.001944 
0.001982 
0.002021 
0.002059 
0.002097 
0.002136 
0.002174 
0.002212 
0.002250 
0.002288 
0.002326 
0.002364 
0.002402 
0.002439 
0.002476 
0.002513 
0.002550 
0.002587 
0.002623 
0.002659 
0.002694 
0.002729 
0.002764 
0.002798 
0.002832 
0.002866 
0.002898 
0.002931 
0.002963 
0.002994 
0.003025 
0.003055 
0.003084 
0.003113 
0.003141 
0.003169 
0.003196 
0.003222 
0.003247 
0.003272 
0.003296 
0.003319 
0.003341 
0.003363 
0.003383 
0.003403 
0.003422 
0.003440 
0.003458 
0.003474 
0.003489 
0.003504 
0.003518 
0.003530 
0.003542 
0.003553 
0.003563 
0.003571 
0.003579 
0.003586 
0.003592 
0.003597 
0.003601 
0.003604 
0.003606 
0.003607 
0.000000 
0.000000 
0.000000 
0.000000 
0.000000 
0.000000 
0.000000 
0.000000 
0.000000 
0.000000 
0.000000 
0.000000 
0.000000 
0.000000 
0.000000 
0.000000 
0.000000 
0.000000 
0.000000 
0.000000 
0.000000 
0.000000 
0.000000 
0.000000 
0.000000 
0.000000 
0.000000 
0.000000 
0.000000 
0.000000 
0.000000 
0.000000 
0.000000 
0.000000 
0.000000 
0.000000 
0.000000 
0.000000 
0.000000 
0.000000 
0.000000 
0.000000 
0.000000 
0.000000 
0.000000 
0.000000 
0.000000 
0.000000 
0.000000 
0.000000 
0.000000 
0.000000 
0.000000 
0.000000 
0.000000 
0.000000 
0.000000 
0.000000 
0.000000 
0.000000 
0.000000 
0.000000 
0.000000 
0.000000 
0.000000 
0.000001 
0.000001 
0.000001 
0.000001 
0.000001 
0.000001 
0.000001 
0.000001 
0.000001 
0.000001 
0.000001 
0.000001 
0.000001 
0.000002 
0.000002 
0.000002 
0.000002 
0.000002 
0.000002 
0.000002 
0.000003 
0.000003 
0.000003 
0.000003 
0.000004 
0.000004 
0.000004 
0.000005 
0.000005 
0.000005 
0.000006 
0.000006 
0.000007 
0.000007 
0.000008 
0.000008 
0.000009 
0.000010 
0.000010 
0.000011 
0.000012 
0.000013 
0.000014 
0.000015 
0.000016 
0.000017 
0.000018 
0.000019 
0.000021 
0.000022 
0.000024 
0.000025 
0.000027 
0.000029 
0.000031 
0.000033 
0.000035 
0.000037 
0.000040 
0.000042 
0.000045 
0.000048 
0.000051 
0.000054 
0.000058 
0.000061 
0.000065 
0.000069 
0.000073 
0.000078 
0.000082 
0.000087 
0.000093 
0.000098 
0.000104 
0.000110 
0.000116 
0.000123 
0.000130 
0.000137 
0.000145 
0.000153 
0.000162 
0.000170 
0.000180 
0.000189 
0.000200 
0.000210 
0.000221 
0.000233 
0.000245 
0.000258 
0.000271 
0.000285 
0.000299 
0.000314 
0.000329 
0.000345 
0.000362 
0.000380 
0.000398 
0.000417 
0.000436 
0.000456 
0.000477 
0.000499 
0.000522 
0.000545 
0.000569 
0.000594 
0.000620 
0.000647 
0.000674 
0.000703 
0.000732 
0.000762 
0.000794 
0.000826 
0.000859 
0.000893 
0.000928 
0.000964 
0.001001 
0.001039 
0.001078 
0.001118 
0.001160 
0.001202 
0.001245 
0.001289 
0.001335 
0.001381 
0.001429 
0.001477 
0.001527 
0.001577 
0.001629 
0.001682 
0.001735 
0.001790 
0.001846 
0.001903 
0.001960 
0.002019 
0.002079 
0.002140 
0.002201 
0.002264 
0.002327 
0.002392 
0.002457 
0.002523 
0.002590 
0.002657 
0.002726 
0.002795 
0.002865 
0.002936 
0.003007 
0.003079 
0.003151 
0.003224 
0.003298 
0.003372 
0.003446 
0.003521 
0.003596 
0.003672 
0.003748 
0.003824 
0.003900 
0.003977 
0.004053 
0.004130 
0.004207 
0.004284 
0.004360 
0.004437 
0.004513 
0.004590 
0.004666 
0.004741 
0.004817 
0.004892 
0.004966 
0.005041 
0.005114 
0.005187 
0.005260 
0.005331 
0.005402 
0.005473 
0.005542 
0.005611 
0.005679 
0.005745 
0.005811 
0.005876 
0.005940 
0.006002 
0.006064 
0.006124 
0.006183 
0.006241 
0.006297 
0.006353 
0.006406 
0.006459 
0.006509 
0.006559 
0.006607 
0.006653 
0.006697 
0.006740 
0.006782 
0.006822 
0.006859 
0.006896 
0.006930 
0.006963 
0.006994 
0.007023 
0.007050 
0.007075 
0.007099 
0.007121 
0.007140 
0.007158 
0.007174 
0.007188 
0.007199 
0.007209 
0.007217 
0.007223 
0.007227 
0.007229 
0.000000 
0.000000 
0.000000 
0.000000 
0.000000 
0.000000 
0.000000 
0.000000 
0.000000 
0.000000 
0.000000 
0.000000 
0.000000 
0.000000 
0.000000 
0.000000 
0.000000 
0.000000 
0.000000 
0.000000 
0.000000 
0.000000 
0.000000 
0.000000 
0.000000 
0.000000 
0.000000 
0.000000 
0.000000 
0.000000 
0.000000 
0.000000 
0.000000 
0.000000 
0.000000 
0.000000 
0.000000 
0.000000 
0.000000 
0.000000 
0.000000 
0.000000 
0.000000 
0.000000 
0.000000 
0.000000 
0.000000 
0.000000 
0.000000 
0.000000 
0.000000 
0.000000 
0.000000 
0.000000 
0.000000 
0.000000 
0.000000 
0.000000 
0.000000 
0.000000 
0.000001 
0.000001 
0.000001 
0.000001 
0.000001 
0.000001 
0.000001 
0.000001 
0.000001 
0.000001 
0.000001 
0.000001 
0.000001 
0.000002 
0.000002 
0.000002 
0.000002 
0.000002 
0.000002 
0.000003 
0.000003 
0.000003 
0.000003 
0.000003 
0.000004 
0.000004 
0.000004 
0.000005 
0.000005 
0.000006 
0.000006 
0.000006 
0.000007 
0.000008 
0.000008 
0.000009 
0.000009 
0.000010 
0.000011 
0.000012 
0.000013 
0.000014 
0.000015 
0.000016 
0.000017 
0.000018 
0.000019 
0.000021 
0.000022 
0.000024 
0.000025 
0.000027 
0.000029 
0.000031 
0.000033 
0.000036 
0.000038 
0.000041 
0.000044 
0.000046 
0.000050 
0.000053 
0.000056 
0.000060 
0.000064 
0.000068 
0.000072 
0.000077 
0.000082 
0.000087 
0.000093 
0.000098 
0.000104 
0.000111 
0.000118 
0.000125 
0.000132 
0.000140 
0.000148 
0.000157 
0.000166 
0.000176 
0.000186 
0.000197 
0.000208 
0.000219 
0.000232 
0.000244 
0.000258 
0.000272 
0.000287 
0.000302 
0.000318 
0.000335 
0.000352 
0.000371 
0.000390 
0.000410 
0.000430 
0.000452 
0.000475 
0.000498 
0.000522 
0.000548 
0.000574 
0.000601 
0.000630 
0.000659 
0.000690 
0.000722 
0.000755 
0.000789 
0.000824 
0.000860 
0.000898 
0.000937 
0.000977 
0.001019 
0.001062 
0.001106 
0.001152 
0.001199 
0.001248 
0.001298 
0.001349 
0.001402 
0.001457 
0.001513 
0.001570 
0.001629 
0.001690 
0.001752 
0.001815 
0.001881 
0.001948 
0.002016 
0.002086 
0.002157 
0.002231 
0.002305 
0.002382 
0.002460 
0.002539 
0.002620 
0.002703 
0.002787 
0.002872 
0.002959 
0.003048 
0.003138 
0.003229 
0.003322 
0.003417 
0.003512 
0.003609 
0.003707 
0.003807 
0.003908 
0.004010 
0.004113 
0.004217 
0.004322 
0.004429 
0.004536 
0.004644 
0.004753 
0.004863 
0.004974 
0.005085 
0.005197 
0.005310 
0.005423 
0.005537 
0.005651 
0.005766 
0.005881 
0.005996 
0.006111 
0.006226 
0.006342 
0.006457 
0.006573 
0.006688 
0.006803 
0.006917 
0.007032 
0.007145 
0.007259 
0.007372 
0.007484 
0.007595 
0.007706 
0.007815 
0.007924 
0.008032 
0.008139 
0.008244 
0.008349 
0.008452 
0.008554 
0.008654 
0.008753 
0.008850 
0.008946 
0.009040 
0.009133 
0.009223 
0.009312 
0.009399 
0.009483 
0.009566 
0.009647 
0.009725 
0.009802 
0.009876 
0.009947 
0.010017 
0.010084 
0.010148 
0.010211 
0.010270 
0.010327 
0.010382 
0.010433 
0.010482 
0.010529 
0.010572 
0.010613 
0.010651 
0.010687 
0.010719 
0.010748 
0.010775 
0.010799 
0.010819 
0.010837 
0.010852 
0.010864 
0.010873 
0.010879 
0.010882 
0.000000 
0.000000 
0.000000 
0.000000 
0.000000 
0.000000 
0.000000 
0.000000 
0.000000 
0.000000 
0.000000 
0.000000 
0.000000 
0.000000 
0.000000 
0.000000 
0.000000 
0.000000 
0.000000 
0.000000 
0.000000 
0.000000 
0.000000 
0.000000 
0.000000 
0.000000 
0.000000 
0.000000 
0.000000 
0.000000 
0.000000 
0.000000 
0.000000 
0.000000 
0.000000 
0.000000 
0.000000 
0.000000 
0.000000 
0.000000 
0.000000 
0.000000 
0.000000 
0.000000 
0.000000 
0.000000 
0.000000 
0.000000 
0.000000 
0.000000 
0.000000 
0.000000 
0.000000 
0.000000 
0.000000 
0.000000 
0.000000 
0.000001 
0.000001 
0.000001 
0.000001 
0.000001 
0.000001 
0.000001 
0.000001 
0.000001 
0.000001 
0.000001 
0.000001 
0.000001 
0.000002 
0.000002 
0.000002 
0.000002 
0.000002 
0.000002 
0.000003 
0.000003 
0.000003 
0.000003 
0.000004 
0.000004 
0.000004 
0.000005 
0.000005 
0.000005 
0.000006 
0.000006 
0.000007 
0.000007 
0.000008 
0.000009 
0.000009 
0.000010 
0.000011 
0.000012 
0.000013 
0.000014 
0.000015 
0.000016 
0.000017 
0.000018 
0.000020 
0.000021 
0.000023 
0.000024 
0.000026 
0.000028 
0.000030 
0.000032 
0.000034 
0.000037 
0.000039 
0.000042 
0.000045 
0.000048 
0.000052 
0.000055 
0.000059 
0.000063 
0.000067 
0.000071 
0.000076 
0.000081 
0.000086 
0.000092 
0.000098 
0.000104 
0.000111 
0.000118 
0.000125 
0.000133 
0.000141 
0.000150 
0.000159 
0.000168 
0.000178 
0.000189 
0.000200 
0.000212 
0.000224 
0.000237 
0.000251 
0.000265 
0.000280 
0.000296 
0.000312 
0.000330 
0.000348 
0.000367 
0.000387 
0.000407 
0.000429 
0.000452 
0.000475 
0.000500 
0.000526 
0.000553 
0.000580 
0.000610 
0.000640 
0.000672 
0.000704 
0.000739 
0.000774 
0.000811 
0.000849 
0.000889 
0.000930 
0.000973 
0.001017 
0.001063 
0.001110 
0.001160 
0.001210 
0.001263 
0.001317 
0.001373 
0.001431 
0.001491 
0.001552 
0.001616 
0.001681 
0.001748 
0.001817 
0.001889 
0.001962 
0.002037 
0.002114 
0.002194 
0.002275 
0.002359 
0.002444 
0.002532 
0.002622 
0.002714 
0.002808 
0.002904 
0.003002 
0.003103 
0.003205 
0.003310 
0.003417 
0.003525 
0.003636 
0.003749 
0.003864 
0.003981 
0.004100 
0.004221 
0.004343 
0.004468 
0.004595 
0.004723 
0.004853 
0.004985 
0.005118 
0.005253 
0.005390 
0.005528 
0.005668 
0.005809 
0.005952 
0.006096 
0.006241 
0.006387 
0.006534 
0.006683 
0.006832 
0.006982 
0.007133 
0.007285 
0.007437 
0.007590 
0.007743 
0.007897 
0.008051 
0.008206 
0.008360 
0.008514 
0.008669 
0.008823 
0.008977 
0.009131 
0.009285 
0.009438 
0.009590 
0.009741 
0.009892 
0.010042 
0.010191 
0.010339 
0.010486 
0.010631 
0.010775 
0.010918 
0.011059 
0.011199 
0.011337 
0.011473 
0.011607 
0.011739 
0.011869 
0.011997 
0.012123 
0.012246 
0.012367 
0.012485 
0.012601 
0.012714 
0.012825 
0.012933 
0.013037 
0.013139 
0.013238 
0.013334 
0.013427 
0.013516 
0.013602 
0.013685 
0.013765 
0.013841 
0.013914 
0.013983 
0.014048 
0.014110 
0.014168 
0.014223 
0.014274 
0.014321 
0.014364 
0.014403 
0.014439 
0.014470 
0.014498 
0.014522 
0.014542 
0.014558 
0.014569 
0.014577 
0.014581 
0.000000 
0.000000 
0.000000 
0.000000 
0.000000 
0.000000 
0.000000 
0.000000 
0.000000 
0.000000 
0.000000 
0.000000 
0.000000 
0.000000 
0.000000 
0.000000 
0.000000 
0.000000 
0.000000 
0.000000 
0.000000 
0.000000 
0.000000 
0.000000 
0.000000 
0.000000 
0.000000 
0.000000 
0.000000 
0.000000 
0.000000 
0.000000 
0.000000 
0.000000 
0.000000 
0.000000 
0.000000 
0.000000 
0.000000 
0.000000 
0.000000 
0.000000 
0.000000 
0.000000 
0.000000 
0.000000 
0.000000 
0.000000 
0.000000 
0.000000 
0.000000 
0.000000 
0.000000 
0.000000 
0.000001 
0.000001 
0.000001 
0.000001 
0.000001 
0.000001 
0.000001 
0.000001 
0.000001 
0.000001 
0.000001 
0.000001 
0.000001 
0.000002 
0.000002 
0.000002 
0.000002 
0.000002 
0.000002 
0.000003 
0.000003 
0.000003 
0.000003 
0.000004 
0.000004 
0.000004 
0.000005 
0.000005 
0.000006 
0.000006 
0.000006 
0.000007 
0.000008 
0.000008 
0.000009 
0.000010 
0.000010 
0.000011 
0.000012 
0.000013 
0.000014 
0.000015 
0.000016 
0.000017 
0.000019 
0.000020 
0.000022 
0.000023 
0.000025 
0.000027 
0.000029 
0.000031 
0.000033 
0.000036 
0.000038 
0.000041 
0.000044 
0.000047 
0.000050 
0.000054 
0.000057 
0.000061 
0.000065 
0.000070 
0.000075 
0.000080 
0.000085 
0.000091 
0.000097 
0.000103 
0.000110 
0.000117 
0.000124 
0.000132 
0.000140 
0.000149 
0.000159 
0.000168 
0.000179 
0.000190 
0.000201 
0.000214 
0.000226 
0.000240 
0.000254 
0.000269 
0.000285 
0.000301 
0.000318 
0.000337 
0.000356 
0.000376 
0.000396 
0.000418 
0.000441 
0.000465 
0.000490 
0.000517 
0.000544 
0.000573 
0.000603 
0.000634 
0.000667 
0.000701 
0.000736 
0.000773 
0.000812 
0.000852 
0.000893 
0.000936 
0.000981 
0.001028 
0.001077 
0.001127 
0.001179 
0.001233 
0.001289 
0.001347 
0.001407 
0.001469 
0.001534 
0.001600 
0.001669 
0.001740 
0.001813 
0.001888 
0.001966 
0.002046 
0.002129 
0.002214 
0.002301 
0.002392 
0.002484 
0.002579 
0.002677 
0.002777 
0.002880 
0.002985 
0.003094 
0.003204 
0.003318 
0.003434 
0.003553 
0.003674 
0.003798 
0.003925 
0.004054 
0.004186 
0.004321 
0.004458 
0.004598 
0.004740 
0.004885 
0.005033 
0.005183 
0.005335 
0.005490 
0.005647 
0.005806 
0.005968 
0.006132 
0.006298 
0.006466 
0.006636 
0.006809 
0.006983 
0.007159 
0.007336 
0.007516 
0.007697 
0.007879 
0.008063 
0.008249 
0.008435 
0.008623 
0.008812 
0.009002 
0.009192 
0.009384 
0.009576 
0.009769 
0.009962 
0.010156 
0.010350 
0.010544 
0.010738 
0.010932 
0.011126 
0.011319 
0.011512 
0.011705 
0.011897 
0.012088 
0.012278 
0.012468 
0.012656 
0.012843 
0.013028 
0.013212 
0.013395 
0.013576 
0.013755 
0.013932 
0.014107 
0.014279 
0.014450 
0.014618 
0.014784 
0.014947 
0.015107 
0.015265 
0.015419 
0.015571 
0.015719 
0.015864 
0.016006 
0.016144 
0.016279 
0.016411 
0.016538 
0.016662 
0.016782 
0.016898 
0.017010 
0.017118 
0.017222 
0.017321 
0.017417 
0.017507 
0.017594 
0.017676 
0.017753 
0.017826 
0.017895 
0.017958 
0.018017 
0.018071 
0.018120 
0.018165 
0.018204 
0.018239 
0.018269 
0.018294 
0.018313 
0.018328 
0.018338 
0.018343 
0.000000 
0.000000 
0.000000 
0.000000 
0.000000 
0.000000 
0.000000 
0.000000 
0.000000 
0.000000 
0.000000 
0.000000 
0.000000 
0.000000 
0.000000 
0.000000 
0.000000 
0.000000 
0.000000 
0.000000 
0.000000 
0.000000 
0.000000 
0.000000 
0.000000 
0.000000 
0.000000 
0.000000 
0.000000 
0.000000 
0.000000 
0.000000 
0.000000 
0.000000 
0.000000 
0.000000 
0.000000 
0.000000 
0.000000 
0.000000 
0.000000 
0.000000 
0.000000 
0.000000 
0.000000 
0.000000 
0.000000 
0.000000 
0.000000 
0.000000 
0.000000 
0.000000 
0.000001 
0.000001 
0.000001 
0.000001 
0.000001 
0.000001 
0.000001 
0.000001 
0.000001 
0.000001 
0.000001 
0.000001 
0.000002 
0.000002 
0.000002 
0.000002 
0.000002 
0.000002 
0.000003 
0.000003 
0.000003 
0.000003 
0.000004 
0.000004 
0.000004 
0.000005 
0.000005 
0.000005 
0.000006 
0.000006 
0.000007 
0.000007 
0.000008 
0.000009 
0.000009 
0.000010 
0.000011 
0.000012 
0.000013 
0.000014 
0.000015 
0.000016 
0.000017 
0.000018 
0.000020 
0.000021 
0.000023 
0.000025 
0.000026 
0.000028 
0.000031 
0.000033 
0.000035 
0.000038 
0.000041 
0.000043 
0.000047 
0.000050 
0.000053 
0.000057 
0.000061 
0.000066 
0.000070 
0.000075 
0.000080 
0.000085 
0.000091 
0.000097 
0.000104 
0.000111 
0.000118 
0.000126 
0.000134 
0.000143 
0.000152 
0.000161 
0.000172 
0.000183 
0.000194 
0.000206 
0.000219 
0.000232 
0.000246 
0.000261 
0.000277 
0.000293 
0.000311 
0.000329 
0.000348 
0.000368 
0.000389 
0.000411 
0.000435 
0.000459 
0.000484 
0.000511 
0.000539 
0.000569 
0.000599 
0.000631 
0.000665 
0.000700 
0.000736 
0.000775 
0.000814 
0.000856 
0.000899 
0.000944 
0.000991 
0.001040 
0.001090 
0.001143 
0.001198 
0.001255 
0.001314 
0.001375 
0.001439 
0.001505 
0.001573 
0.001644 
0.001717 
0.001793 
0.001871 
0.001952 
0.002035 
0.002122 
0.002211 
0.002303 
0.002397 
0.002495 
0.002596 
0.002699 
0.002806 
0.002915 
0.003028 
0.003143 
0.003262 
0.003384 
0.003509 
0.003637 
0.003769 
0.003903 
0.004041 
0.004182 
0.004326 
0.004474 
0.004625 
0.004778 
0.004936 
0.005096 
0.005259 
0.005426 
0.005595 
0.005768 
0.005944 
0.006123 
0.006305 
0.006489 
0.006677 
0.006867 
0.007061 
0.007257 
0.007455 
0.007656 
0.007860 
0.008066 
0.008275 
0.008485 
0.008698 
0.008914 
0.009131 
0.009350 
0.009570 
0.009793 
0.010017 
0.010243 
0.010470 
0.010698 
0.010928 
0.011158 
0.011390 
0.011622 
0.011855 
0.012088 
0.012322 
0.012556 
0.012791 
0.013025 
0.013259 
0.013493 
0.013727 
0.013960 
0.014192 
0.014424 
0.014654 
0.014884 
0.015112 
0.015339 
0.015564 
0.015788 
0.016010 
0.016230 
0.016447 
0.016663 
0.016876 
0.017087 
0.017295 
0.017501 
0.017703 
0.017902 
0.018099 
0.018292 
0.018481 
0.018667 
0.018850 
0.019028 
0.019203 
0.019373 
0.019540 
0.019702 
0.019860 
0.020014 
0.020163 
0.020307 
0.020446 
0.020581 
0.020711 
0.020836 
0.020955 
0.021070 
0.021179 
0.021283 
0.021382 
0.021475 
0.021562 
0.021644 
0.021721 
0.021791 
0.021856 
0.021916 
0.021969 
0.022017 
0.022058 
0.022094 
0.022124 
0.022148 
0.022166 
0.022178 
0.022184 
0.000000 
0.000000 
0.000000 
0.000000 
0.000000 
0.000000 
0.000000 
0.000000 
0.000000 
0.000000 
0.000000 
0.000000 
0.000000 
0.000000 
0.000000 
0.000000 
0.000000 
0.000000 
0.000000 
0.000000 
0.000000 
0.000000 
0.000000 
0.000000 
0.000000 
0.000000 
0.000000 
0.000000 
0.000000 
0.000000 
0.000000 
0.000000 
0.000000 
0.000000 
0.000000 
0.000000 
0.000000 
0.000000 
0.000000 
0.000000 
0.000000 
0.000000 
0.000000 
0.000000 
0.000000 
0.000000 
0.000000 
0.000000 
0.000000 
0.000000 
0.000001 
0.000001 
0.000001 
0.000001 
0.000001 
0.000001 
0.000001 
0.000001 
0.000001 
0.000001 
0.000001 
0.000001 
0.000002 
0.000002 
0.000002 
0.000002 
0.000002 
0.000002 
0.000003 
0.000003 
0.000003 
0.000003 
0.000004 
0.000004 
0.000004 
0.000005 
0.000005 
0.000005 
0.000006 
0.000006 
0.000007 
0.000007 
0.000008 
0.000009 
0.000009 
0.000010 
0.000011 
0.000012 
0.000013 
0.000014 
0.000015 
0.000016 
0.000017 
0.000019 
0.000020 
0.000022 
0.000024 
0.000025 
0.000027 
0.000029 
0.000032 
0.000034 
0.000036 
0.000039 
0.000042 
0.000045 
0.000048 
0.000052 
0.000056 
0.000060 
0.000064 
0.000068 
0.000073 
0.000078 
0.000084 
0.000089 
0.000095 
0.000102 
0.000109 
0.000116 
0.000124 
0.000132 
0.000141 
0.000150 
0.000160 
0.000170 
0.000181 
0.000193 
0.000205 
0.000218 
0.000231 
0.000246 
0.000261 
0.000277 
0.000294 
0.000311 
0.000330 
0.000350 
0.000370 
0.000392 
0.000415 
0.000439 
0.000464 
0.000490 
0.000518 
0.000547 
0.000577 
0.000609 
0.000642 
0.000677 
0.000714 
0.000752 
0.000792 
0.000834 
0.000877 
0.000922 
0.000970 
0.001019 
0.001071 
0.001124 
0.001180 
0.001238 
0.001298 
0.001361 
0.001426 
0.001494 
0.001564 
0.001637 
0.001712 
0.001790 
0.001872 
0.001956 
0.002042 
0.002132 
0.002225 
0.002321 
0.002421 
0.002523 
0.002629 
0.002738 
0.002850 
0.002966 
0.003085 
0.003208 
0.003334 
0.003464 
0.003597 
0.003734 
0.003875 
0.004019 
0.004167 
0.004319 
0.004475 
0.004634 
0.004797 
0.004964 
0.005135 
0.005310 
0.005488 
0.005670 
0.005856 
0.006045 
0.006238 
0.006435 
0.006636 
0.006840 
0.007048 
0.007259 
0.007474 
0.007692 
0.007913 
0.008138 
0.008366 
0.008597 
0.008832 
0.009069 
0.009309 
0.009552 
0.009798 
0.010046 
0.010298 
0.010551 
0.010807 
0.011065 
0.011325 
0.011587 
0.011851 
0.012116 
0.012384 
0.012652 
0.012922 
0.013194 
0.013466 
0.013739 
0.014013 
0.014287 
0.014562 
0.014838 
0.015113 
0.015388 
0.015663 
0.015938 
0.016212 
0.016486 
0.016759 
0.017031 
0.017301 
0.017571 
0.017838 
0.018105 
0.018369 
0.018631 
0.018891 
0.019149 
0.019405 
0.019657 
0.019907 
0.020154 
0.020398 
0.020639 
0.020876 
0.021110 
0.021339 
0.021565 
0.021787 
0.022005 
0.022219 
0.022428 
0.022632 
0.022832 
0.023027 
0.023217 
0.023401 
0.023581 
0.023755 
0.023924 
0.024087 
0.024245 
0.024397 
0.024543 
0.024683 
0.024816 
0.024944 
0.025066 
0.025181 
0.025290 
0.025392 
0.025488 
0.025577 
0.025660 
0.025736 
0.025805 
0.025867 
0.025923 
0.025972 
0.026014 
0.026048 
0.026076 
0.026097 
0.026111 
0.026118 
0.000000 
0.000000 
0.000000 
0.000000 
0.000000 
0.000000 
0.000000 
0.000000 
0.000000 
0.000000 
0.000000 
0.000000 
0.000000 
0.000000 
0.000000 
0.000000 
0.000000 
0.000000 
0.000000 
0.000000 
0.000000 
0.000000 
0.000000 
0.000000 
0.000000 
0.000000 
0.000000 
0.000000 
0.000000 
0.000000 
0.000000 
0.000000 
0.000000 
0.000000 
0.000000 
0.000000 
0.000000 
0.000000 
0.000000 
0.000000 
0.000000 
0.000000 
0.000000 
0.000000 
0.000000 
0.000000 
0.000000 
0.000000 
0.000001 
0.000001 
0.000001 
0.000001 
0.000001 
0.000001 
0.000001 
0.000001 
0.000001 
0.000001 
0.000001 
0.000001 
0.000002 
0.000002 
0.000002 
0.000002 
0.000002 
0.000002 
0.000003 
0.000003 
0.000003 
0.000003 
0.000004 
0.000004 
0.000004 
0.000005 
0.000005 
0.000005 
0.000006 
0.000006 
0.000007 
0.000007 
0.000008 
0.000009 
0.000009 
0.000010 
0.000011 
0.000012 
0.000013 
0.000014 
0.000015 
0.000016 
0.000018 
0.000019 
0.000020 
0.000022 
0.000024 
0.000026 
0.000028 
0.000030 
0.000032 
0.000034 
0.000037 
0.000040 
0.000043 
0.000046 
0.000049 
0.000053 
0.000057 
0.000061 
0.000065 
0.000070 
0.000075 
0.000080 
0.000086 
0.000092 
0.000098 
0.000105 
0.000112 
0.000120 
0.000128 
0.000136 
0.000145 
0.000155 
0.000165 
0.000176 
0.000187 
0.000199 
0.000212 
0.000226 
0.000240 
0.000255 
0.000271 
0.000288 
0.000306 
0.000324 
0.000344 
0.000365 
0.000386 
0.000409 
0.000434 
0.000459 
0.000486 
0.000514 
0.000543 
0.000574 
0.000606 
0.000640 
0.000676 
0.000713 
0.000752 
0.000793 
0.000836 
0.000880 
0.000927 
0.000976 
0.001026 
0.001079 
0.001135 
0.001192 
0.001252 
0.001315 
0.001380 
0.001448 
0.001518 
0.001591 
0.001667 
0.001746 
0.001828 
0.001913 
0.002001 
0.002093 
0.002187 
0.002285 
0.002386 
0.002491 
0.002600 
0.002712 
0.002827 
0.002946 
0.003070 
0.003197 
0.003327 
0.003462 
0.003601 
0.003744 
0.003891 
0.004042 
0.004197 
0.004357 
0.004520 
0.004688 
0.004860 
0.005037 
0.005218 
0.005403 
0.005593 
0.005786 
0.005985 
0.006187 
0.006394 
0.006606 
0.006821 
0.007041 
0.007265 
0.007494 
0.007726 
0.007963 
0.008204 
0.008449 
0.008697 
0.008950 
0.009207 
0.009467 
0.009731 
0.009999 
0.010270 
0.010545 
0.010823 
0.011104 
0.011388 
0.011676 
0.011966 
0.012259 
0.012555 
0.012853 
0.013153 
0.013456 
0.013761 
0.014067 
0.014376 
0.014686 
0.014998 
0.015310 
0.015625 
0.015940 
0.016255 
0.016572 
0.016889 
0.017206 
0.017523 
0.017840 
0.018157 
0.018474 
0.018790 
0.019105 
0.019419 
0.019731 
0.020043 
0.020353 
0.020661 
0.020967 
0.021271 
0.021573 
0.021872 
0.022168 
0.022462 
0.022752 
0.023039 
0.023323 
0.023603 
0.023879 
0.024152 
0.024420 
0.024684 
0.024943 
0.025198 
0.025448 
0.025693 
0.025933 
0.026167 
0.026396 
0.026620 
0.026837 
0.027049 
0.027255 
0.027455 
0.027648 
0.027836 
0.028016 
0.028190 
0.028357 
0.028518 
0.028671 
0.028817 
0.028957 
0.029089 
0.029213 
0.029331 
0.029440 
0.029543 
0.029637 
0.029724 
0.029803 
0.029875 
0.029939 
0.029994 
0.030042 
0.030082 
0.030114 
0.030138 
0.030154 
0.030162 
0.000000 
0.000000 
0.000000 
0.000000 
0.000000 
0.000000 
0.000000 
0.000000 
0.000000 
0.000000 
0.000000 
0.000000 
0.000000 
0.000000 
0.000000 
0.000000 
0.000000 
0.000000 
0.000000 
0.000000 
0.000000 
0.000000 
0.000000 
0.000000 
0.000000 
0.000000 