# vtk DataFile Version 3.0
results.vtk
ASCII
DATASET RECTILINEAR_GRID
DIMENSIONS 301 301 1
X_COORDINATES 301 double
0.000000 0.003333 0.006667 0.010000 0.013333 0.016667 0.020000 0.023333 0.026667 0.030000 0.033333 0.036667 0.040000 0.043333 0.046667 0.050000 0.053333 0.056667 0.060000 0.063333 0.066667 0.070000 0.073333 0.076667 0.080000 0.083333 0.086667 0.090000 0.093333 0.096667 0.100000 0.103333 0.106667 0.110000 0.113333 0.116667 0.120000 0.123333 0.126667 0.130000 0.133333 0.136667 0.140000 0.143333 0.146667 0.150000 0.153333 0.156667 0.160000 0.163333 0.166667 0.170000 0.173333 0.176667 0.180000 0.183333 0.186667 0.190000 0.193333 0.196667 0.200000 0.203333 0.206667 0.210000 0.213333 0.216667 0.220000 0.223333 0.226667 0.230000 0.233333 0.236667 0.240000 0.243333 0.246667 0.250000 0.253333 0.256667 0.260000 0.263333 0.266667 0.270000 0.273333 0.276667 0.280000 0.283333 0.286667 0.290000 0.293333 0.296667 0.300000 0.303333 0.306667 0.310000 0.313333 0.316667 0.320000 0.323333 0.326667 0.330000 0.333333 0.336667 0.340000 0.343333 0.346667 0.350000 0.353333 0.356667 0.360000 0.363333 0.366667 0.370000 0.373333 0.376667 0.380000 0.383333 0.386667 0.390000 0.393333 0.396667 0.400000 0.403333 0.406667 0.410000 0.413333 0.416667 0.420000 0.423333 0.426667 0.430000 0.433333 0.436667 0.440000 0.443333 0.446667 0.450000 0.453333 0.456667 0.460000 0.463333 0.466667 0.470000 0.473333 0.476667 0.480000 0.483333 0.486667 0.490000 0.493333 0.496667 0.500000 0.503333 0.506667 0.510000 0.513333 0.516667 0.520000 0.523333 0.526667 0.530000 0.533333 0.536667 0.540000 0.543333 0.546667 0.550000 0.553333 0.556667 0.560000 0.563333 0.566667 0.570000 0.573333 0.576667 0.580000 0.583333 0.586667 0.590000 0.593333 0.596667 0.600000 0.603333 0.606667 0.610000 0.613333 0.616667 0.620000 0.623333 0.626667 0.630000 0.633333 0.636667 0.640000 0.643333 0.646667 0.650000 0.653333 0.656667 0.660000 0.663333 0.666667 0.670000 0.673333 0.676667 0.680000 0.683333 0.686667 0.690000 0.693333 0.696667 0.700000 0.703333 0.706667 0.710000 0.713333 0.716667 0.720000 0.723333 0.726667 0.730000 0.733333 0.736667 0.740000 0.743333 0.746667 0.750000 0.753333 0.756667 0.760000 0.763333 0.766667 0.770000 0.773333 0.776667 0.780000 0.783333 0.786667 0.790000 0.793333 0.796667 0.800000 0.803333 0.806667 0.810000 0.813333 0.816667 0.820000 0.823333 0.826667 0.830000 0.833333 0.836667 0.840000 0.843333 0.846667 0.850000 0.853333 0.856667 0.860000 0.863333 0.866667 0.870000 0.873333 0.876667 0.880000 0.883333 0.886667 0.890000 0.893333 0.896667 0.900000 0.903333 0.906667 0.910000 0.913333 0.916667 0.920000 0.923333 0.926667 0.930000 0.933333 0.936667 0.940000 0.943333 0.946667 0.950000 0.953333 0.956667 0.960000 0.963333 0.966667 0.970000 0.973333 0.976667 0.980000 0.983333 0.986667 0.990000 0.993333 0.996667 1.000000 
Y_COORDINATES 301 double
0.000000 0.003333 0.006667 0.010000 0.013333 0.016667 0.020000 0.023333 0.026667 0.030000 0.033333 0.036667 0.040000 0.043333 0.046667 0.050000 0.053333 0.056667 0.060000 0.063333 0.066667 0.070000 0.073333 0.076667 0.080000 0.083333 0.086667 0.090000 0.093333 0.096667 0.100000 0.103333 0.106667 0.110000 0.113333 0.116667 0.120000 0.123333 0.126667 0.130000 0.133333 0.136667 0.140000 0.143333 0.146667 0.150000 0.153333 0.156667 0.160000 0.163333 0.166667 0.170000 0.173333 0.176667 0.180000 0.183333 0.186667 0.190000 0.193333 0.196667 0.200000 0.203333 0.206667 0.210000 0.213333 0.216667 0.220000 0.223333 0.226667 0.230000 0.233333 0.236667 0.240000 0.243333 0.246667 0.250000 0.253333 0.256667 0.260000 0.263333 0.266667 0.270000 0.273333 0.276667 0.280000 0.283333 0.286667 0.290000 0.293333 0.296667 0.300000 0.303333 0.306667 0.310000 0.313333 0.316667 0.320000 0.323333 0.326667 0.330000 0.333333 0.336667 0.340000 0.343333 0.346667 0.350000 0.353333 0.356667 0.360000 0.363333 0.366667 0.370000 0.373333 0.376667 0.380000 0.383333 0.386667 0.390000 0.393333 0.396667 0.400000 0.403333 0.406667 0.410000 0.413333 0.416667 0.420000 0.423333 0.426667 0.430000 0.433333 0.436667 0.440000 0.443333 0.446667 0.450000 0.453333 0.456667 0.460000 0.463333 0.466667 0.470000 0.473333 0.476667 0.480000 0.483333 0.486667 0.490000 0.493333 0.496667 0.500000 0.503333 0.506667 0.510000 0.513333 0.516667 0.520000 0.523333 0.526667 0.530000 0.533333 0.536667 0.540000 0.543333 0.546667 0.550000 0.553333 0.556667 0.560000 0.563333 0.566667 0.570000 0.573333 0.576667 0.580000 0.583333 0.586667 0.590000 0.593333 0.596667 0.600000 0.603333 0.606667 0.610000 0.613333 0.616667 0.620000 0.623333 0.626667 0.630000 0.633333 0.636667 0.640000 0.643333 0.646667 0.650000 0.653333 0.656667 0.660000 0.663333 0.666667 0.670000 0.673333 0.676667 0.680000 0.683333 0.686667 0.690000 0.693333 0.696667 0.700000 0.703333 0.706667 0.710000 0.713333 0.716667 0.720000 0.723333 0.726667 0.730000 0.733333 0.736667 0.740000 0.743333 0.746667 0.750000 0.753333 0.756667 0.760000 0.763333 0.766667 0.770000 0.773333 0.776667 0.780000 0.783333 0.786667 0.790000 0.793333 0.796667 0.800000 0.803333 0.806667 0.810000 0.813333 0.816667 0.820000 0.823333 0.826667 0.830000 0.833333 0.836667 0.840000 0.843333 0.846667 0.850000 0.853333 0.856667 0.860000 0.863333 0.866667 0.870000 0.873333 0.876667 0.880000 0.883333 0.886667 0.890000 0.893333 0.896667 0.900000 0.903333 0.906667 0.910000 0.913333 0.916667 0.920000 0.923333 0.926667 0.930000 0.933333 0.936667 0.940000 0.943333 0.946667 0.950000 0.953333 0.956667 0.960000 0.963333 0.966667 0.970000 0.973333 0.976667 0.980000 0.983333 0.986667 0.990000 0.993333 0.996667 1.000000 
Z_COORDINATES 1 double
0
POINT_DATA 90601 
FIELD FieldData 1 
Concentração 1 90601 double 
0.000000 
0.000000 
0.000000 
0.000000 
0.000000 
0.000000 
0.000000 
0.000000 
0.000000 
0.000000 
0.000000 
0.000000 
0.000000 
0.000000 
0.000000 
0.000000 
0.000000 
0.000000 
0.000000 
0.000000 
0.000000 
0.000000 
0.000000 
0.000000 
0.000000 
0.000000 
0.000000 
0.000000 
0.000000 
0.000000 
0.000000 
0.000000 
0.000000 
0.000000 
0.000000 
0.000000 
0.000000 
0.000000 
0.000000 
0.000000 
0.000000 
0.000000 
0.000000 
0.000000 
0.000000 
0.000000 
0.000000 
0.000000 
0.000000 
0.000000 
0.000000 
0.000000 
0.000000 
0.000000 
0.000000 
0.000000 
0.000000 
0.000000 
0.000000 
0.000000 
0.000000 
0.000000 
0.000000 
0.000000 
0.000000 
0.000000 
0.000000 
0.000000 
0.000000 
0.000000 
0.000000 
0.000000 
0.000000 
0.000000 
0.000000 
0.000000 
0.000000 
0.000000 
0.000000 
0.000000 
0.000000 
0.000000 
0.000001 
0.000001 
0.000001 
0.000001 
0.000001 
0.000001 
0.000001 
0.000001 
0.000001 
0.000001 
0.000001 
0.000001 
0.000001 
0.000001 
0.000001 
0.000002 
0.000002 
0.000002 
0.000002 
0.000002 
0.000002 
0.000003 
0.000003 
0.000003 
0.000003 
0.000003 
0.000004 
0.000004 
0.000004 
0.000004 
0.000005 
0.000005 
0.000005 
0.000006 
0.000006 
0.000007 
0.000007 
0.000008 
0.000008 
0.000009 
0.000009 
0.000010 
0.000011 
0.000011 
0.000012 
0.000013 
0.000014 
0.000015 
0.000015 
0.000016 
0.000018 
0.000019 
0.000020 
0.000021 
0.000022 
0.000024 
0.000025 
0.000027 
0.000028 
0.000030 
0.000032 
0.000034 
0.000035 
0.000038 
0.000040 
0.000042 
0.000044 
0.000047 
0.000049 
0.000052 
0.000055 
0.000058 
0.000061 
0.000064 
0.000068 
0.000071 
0.000075 
0.000079 
0.000083 
0.000087 
0.000092 
0.000096 
0.000101 
0.000106 
0.000111 
0.000117 
0.000122 
0.000128 
0.000134 
0.000140 
0.000147 
0.000154 
0.000161 
0.000168 
0.000175 
0.000183 
0.000191 
0.000199 
0.000208 
0.000217 
0.000226 
0.000235 
0.000245 
0.000255 
0.000265 
0.000276 
0.000287 
0.000298 
0.000310 
0.000322 
0.000334 
0.000347 
0.000359 
0.000373 
0.000386 
0.000400 
0.000414 
0.000429 
0.000444 
0.000459 
0.000475 
0.000491 
0.000507 
0.000523 
0.000540 
0.000558 
0.000575 
0.000593 
0.000612 
0.000630 
0.000649 
0.000668 
0.000688 
0.000708 
0.000728 
0.000748 
0.000769 
0.000790 
0.000811 
0.000833 
0.000854 
0.000876 
0.000899 
0.000921 
0.000944 
0.000967 
0.000990 
0.001013 
0.001037 
0.001060 
0.001084 
0.001108 
0.001132 
0.001156 
0.001180 
0.001205 
0.001229 
0.001254 
0.001278 
0.001303 
0.001327 
0.001352 
0.001376 
0.001401 
0.001425 
0.001450 
0.001474 
0.001498 
0.001522 
0.001546 
0.001570 
0.001593 
0.001617 
0.001640 
0.001663 
0.001686 
0.001709 
0.001731 
0.001753 
0.001775 
0.001796 
0.001817 
0.001838 
0.001858 
0.001878 
0.001898 
0.001917 
0.001936 
0.001954 
0.001972 
0.001990 
0.002007 
0.002023 
0.002039 
0.002055 
0.002070 
0.002084 
0.002098 
0.002112 
0.002124 
0.002137 
0.002148 
0.002159 
0.002170 
0.002180 
0.002189 
0.002197 
0.002205 
0.002213 
0.002219 
0.002225 
0.002231 
0.002235 
0.002239 
0.002243 
0.002245 
0.002247 
0.002249 
0.002249 
0.000000 
0.000000 
0.000000 
0.000000 
0.000000 
0.000000 
0.000000 
0.000000 
0.000000 
0.000000 
0.000000 
0.000000 
0.000000 
0.000000 
0.000000 
0.000000 
0.000000 
0.000000 
0.000000 
0.000000 
0.000000 
0.000000 
0.000000 
0.000000 
0.000000 
0.000000 
0.000000 
0.000000 
0.000000 
0.000000 
0.000000 
0.000000 
0.000000 
0.000000 
0.000000 
0.000000 
0.000000 
0.000000 
0.000000 
0.000000 
0.000000 
0.000000 
0.000000 
0.000000 
0.000000 
0.000000 
0.000000 
0.000000 
0.000000 
0.000000 
0.000000 
0.000000 
0.000000 
0.000000 
0.000000 
0.000000 
0.000000 
0.000000 
0.000000 
0.000000 
0.000000 
0.000000 
0.000000 
0.000000 
0.000000 
0.000000 
0.000000 
0.000000 
0.000000 
0.000000 
0.000000 
0.000000 
0.000000 
0.000000 
0.000001 
0.000001 
0.000001 
0.000001 
0.000001 
0.000001 
0.000001 
0.000001 
0.000001 
0.000001 
0.000001 
0.000001 
0.000001 
0.000002 
0.000002 
0.000002 
0.000002 
0.000002 
0.000002 
0.000002 
0.000003 
0.000003 
0.000003 
0.000003 
0.000004 
0.000004 
0.000004 
0.000004 
0.000005 
0.000005 
0.000005 
0.000006 
0.000006 
0.000007 
0.000007 
0.000008 
0.000008 
0.000009 
0.000010 
0.000010 
0.000011 
0.000012 
0.000013 
0.000013 
0.000014 
0.000015 
0.000016 
0.000018 
0.000019 
0.000020 
0.000021 
0.000023 
0.000024 
0.000026 
0.000028 
0.000029 
0.000031 
0.000033 
0.000035 
0.000037 
0.000040 
0.000042 
0.000045 
0.000048 
0.000050 
0.000054 
0.000057 
0.000060 
0.000064 
0.000067 
0.000071 
0.000075 
0.000080 
0.000084 
0.000089 
0.000094 
0.000099 
0.000105 
0.000111 
0.000117 
0.000123 
0.000129 
0.000136 
0.000143 
0.000151 
0.000159 
0.000167 
0.000175 
0.000184 
0.000193 
0.000203 
0.000213 
0.000224 
0.000234 
0.000246 
0.000257 
0.000269 
0.000282 
0.000295 
0.000309 
0.000323 
0.000337 
0.000352 
0.000368 
0.000384 
0.000401 
0.000418 
0.000436 
0.000454 
0.000473 
0.000492 
0.000513 
0.000533 
0.000555 
0.000577 
0.000599 
0.000623 
0.000646 
0.000671 
0.000696 
0.000722 
0.000749 
0.000776 
0.000804 
0.000832 
0.000862 
0.000892 
0.000922 
0.000954 
0.000986 
0.001018 
0.001052 
0.001086 
0.001120 
0.001156 
0.001192 
0.001228 
0.001266 
0.001304 
0.001342 
0.001381 
0.001421 
0.001462 
0.001503 
0.001544 
0.001586 
0.001629 
0.001672 
0.001716 
0.001760 
0.001805 
0.001850 
0.001895 
0.001941 
0.001988 
0.002034 
0.002081 
0.002129 
0.002177 
0.002225 
0.002273 
0.002321 
0.002370 
0.002419 
0.002468 
0.002517 
0.002566 
0.002615 
0.002664 
0.002713 
0.002763 
0.002812 
0.002861 
0.002910 
0.002958 
0.003007 
0.003055 
0.003103 
0.003151 
0.003198 
0.003245 
0.003292 
0.003338 
0.003384 
0.003429 
0.003474 
0.003518 
0.003561 
0.003604 
0.003646 
0.003688 
0.003729 
0.003769 
0.003808 
0.003847 
0.003885 
0.003921 
0.003957 
0.003992 
0.004026 
0.004059 
0.004092 
0.004123 
0.004153 
0.004182 
0.004210 
0.004236 
0.004262 
0.004286 
0.004310 
0.004332 
0.004353 
0.004372 
0.004391 
0.004408 
0.004424 
0.004439 
0.004452 
0.004464 
0.004475 
0.004484 
0.004492 
0.004499 
0.004504 
0.004508 
0.004511 
0.004512 
0.000000 
0.000000 
0.000000 
0.000000 
0.000000 
0.000000 
0.000000 
0.000000 
0.000000 
0.000000 
0.000000 
0.000000 
0.000000 
0.000000 
0.000000 
0.000000 
0.000000 
0.000000 
0.000000 
0.000000 
0.000000 
0.000000 
0.000000 
0.000000 
0.000000 
0.000000 
0.000000 
0.000000 
0.000000 
0.000000 
0.000000 
0.000000 
0.000000 
0.000000 
0.000000 
0.000000 
0.000000 
0.000000 
0.000000 
0.000000 
0.000000 
0.000000 
0.000000 
0.000000 
0.000000 
0.000000 
0.000000 
0.000000 
0.000000 
0.000000 
0.000000 
0.000000 
0.000000 
0.000000 
0.000000 
0.000000 
0.000000 
0.000000 
0.000000 
0.000000 
0.000000 
0.000000 
0.000000 
0.000000 
0.000000 
0.000000 
0.000000 
0.000000 
0.000000 
0.000001 
0.000001 
0.000001 
0.000001 
0.000001 
0.000001 
0.000001 
0.000001 
0.000001 
0.000001 
0.000001 
0.000001 
0.000001 
0.000002 
0.000002 
0.000002 
0.000002 
0.000002 
0.000002 
0.000002 
0.000003 
0.000003 
0.000003 
0.000003 
0.000004 
0.000004 
0.000004 
0.000005 
0.000005 
0.000005 
0.000006 
0.000006 
0.000007 
0.000007 
0.000008 
0.000008 
0.000009 
0.000010 
0.000010 
0.000011 
0.000012 
0.000013 
0.000014 
0.000015 
0.000016 
0.000017 
0.000018 
0.000019 
0.000020 
0.000022 
0.000023 
0.000025 
0.000027 
0.000028 
0.000030 
0.000032 
0.000034 
0.000037 
0.000039 
0.000042 
0.000044 
0.000047 
0.000050 
0.000053 
0.000057 
0.000060 
0.000064 
0.000068 
0.000072 
0.000076 
0.000081 
0.000086 
0.000091 
0.000096 
0.000102 
0.000108 
0.000114 
0.000121 
0.000128 
0.000135 
0.000142 
0.000150 
0.000159 
0.000167 
0.000176 
0.000186 
0.000196 
0.000206 
0.000217 
0.000228 
0.000240 
0.000253 
0.000265 
0.000279 
0.000293 
0.000307 
0.000322 
0.000338 
0.000355 
0.000372 
0.000389 
0.000408 
0.000427 
0.000446 
0.000467 
0.000488 
0.000510 
0.000533 
0.000556 
0.000581 
0.000606 
0.000632 
0.000659 
0.000687 
0.000715 
0.000745 
0.000775 
0.000806 
0.000839 
0.000872 
0.000906 
0.000941 
0.000977 
0.001015 
0.001053 
0.001092 
0.001132 
0.001173 
0.001215 
0.001258 
0.001303 
0.001348 
0.001394 
0.001441 
0.001490 
0.001539 
0.001589 
0.001641 
0.001693 
0.001746 
0.001801 
0.001856 
0.001912 
0.001970 
0.002028 
0.002087 
0.002147 
0.002208 
0.002270 
0.002332 
0.002396 
0.002460 
0.002526 
0.002591 
0.002658 
0.002725 
0.002793 
0.002862 
0.002931 
0.003001 
0.003072 
0.003143 
0.003214 
0.003286 
0.003358 
0.003431 
0.003504 
0.003577 
0.003651 
0.003725 
0.003799 
0.003873 
0.003947 
0.004021 
0.004095 
0.004169 
0.004243 
0.004317 
0.004391 
0.004464 
0.004537 
0.004610 
0.004682 
0.004754 
0.004825 
0.004896 
0.004966 
0.005035 
0.005104 
0.005172 
0.005240 
0.005306 
0.005372 
0.005436 
0.005500 
0.005562 
0.005624 
0.005684 
0.005744 
0.005802 
0.005858 
0.005914 
0.005968 
0.006020 
0.006072 
0.006122 
0.006170 
0.006217 
0.006262 
0.006305 
0.006347 
0.006388 
0.006426 
0.006463 
0.006498 
0.006531 
0.006563 
0.006592 
0.006620 
0.006646 
0.006670 
0.006692 
0.006712 
0.006730 
0.006746 
0.006760 
0.006772 
0.006782 
0.006791 
0.006797 
0.006801 
0.006803 
0.000000 
0.000000 
0.000000 
0.000000 
0.000000 
0.000000 
0.000000 
0.000000 
0.000000 
0.000000 
0.000000 
0.000000 
0.000000 
0.000000 
0.000000 
0.000000 
0.000000 
0.000000 
0.000000 
0.000000 
0.000000 
0.000000 
0.000000 
0.000000 
0.000000 
0.000000 
0.000000 
0.000000 
0.000000 
0.000000 
0.000000 
0.000000 
0.000000 
0.000000 
0.000000 
0.000000 
0.000000 
0.000000 
0.000000 
0.000000 
0.000000 
0.000000 
0.000000 
0.000000 
0.000000 
0.000000 
0.000000 
0.000000 
0.000000 
0.000000 
0.000000 
0.000000 
0.000000 
0.000000 
0.000000 
0.000000 
0.000000 
0.000000 
0.000000 
0.000000 
0.000000 
0.000000 
0.000000 
0.000000 
0.000000 
0.000000 
0.000001 
0.000001 
0.000001 
0.000001 
0.000001 
0.000001 
0.000001 
0.000001 
0.000001 
0.000001 
0.000001 
0.000001 
0.000001 
0.000002 
0.000002 
0.000002 
0.000002 
0.000002 
0.000002 
0.000003 
0.000003 
0.000003 
0.000003 
0.000004 
0.000004 
0.000004 
0.000005 
0.000005 
0.000005 
0.000006 
0.000006 
0.000007 
0.000007 
0.000008 
0.000008 
0.000009 
0.000010 
0.000010 
0.000011 
0.000012 
0.000013 
0.000014 
0.000015 
0.000016 
0.000017 
0.000018 
0.000020 
0.000021 
0.000022 
0.000024 
0.000026 
0.000028 
0.000029 
0.000031 
0.000034 
0.000036 
0.000038 
0.000041 
0.000044 
0.000047 
0.000050 
0.000053 
0.000056 
0.000060 
0.000064 
0.000068 
0.000072 
0.000077 
0.000081 
0.000086 
0.000092 
0.000097 
0.000103 
0.000109 
0.000116 
0.000123 
0.000130 
0.000138 
0.000146 
0.000154 
0.000163 
0.000172 
0.000182 
0.000192 
0.000203 
0.000214 
0.000226 
0.000238 
0.000251 
0.000264 
0.000278 
0.000293 
0.000308 
0.000324 
0.000341 
0.000358 
0.000376 
0.000395 
0.000415 
0.000435 
0.000456 
0.000478 
0.000501 
0.000525 
0.000550 
0.000576 
0.000602 
0.000630 
0.000658 
0.000688 
0.000719 
0.000750 
0.000783 
0.000817 
0.000852 
0.000888 
0.000926 
0.000964 
0.001004 
0.001045 
0.001087 
0.001131 
0.001176 
0.001222 
0.001269 
0.001318 
0.001368 
0.001419 
0.001472 
0.001526 
0.001581 
0.001638 
0.001696 
0.001755 
0.001816 
0.001878 
0.001942 
0.002007 
0.002073 
0.002141 
0.002210 
0.002281 
0.002352 
0.002425 
0.002500 
0.002576 
0.002653 
0.002731 
0.002810 
0.002891 
0.002973 
0.003056 
0.003140 
0.003226 
0.003312 
0.003400 
0.003488 
0.003578 
0.003668 
0.003760 
0.003852 
0.003945 
0.004039 
0.004133 
0.004229 
0.004325 
0.004421 
0.004518 
0.004616 
0.004714 
0.004812 
0.004911 
0.005010 
0.005109 
0.005209 
0.005308 
0.005407 
0.005507 
0.005606 
0.005705 
0.005804 
0.005903 
0.006001 
0.006099 
0.006197 
0.006294 
0.006390 
0.006486 
0.006581 
0.006675 
0.006768 
0.006860 
0.006951 
0.007041 
0.007130 
0.007218 
0.007305 
0.007390 
0.007474 
0.007556 
0.007637 
0.007716 
0.007794 
0.007870 
0.007944 
0.008017 
0.008087 
0.008156 
0.008223 
0.008287 
0.008350 
0.008410 
0.008469 
0.008525 
0.008579 
0.008630 
0.008680 
0.008727 
0.008771 
0.008813 
0.008853 
0.008890 
0.008925 
0.008957 
0.008986 
0.009013 
0.009037 
0.009059 
0.009078 
0.009094 
0.009107 
0.009118 
0.009126 
0.009132 
0.009135 
0.000000 
0.000000 
0.000000 
0.000000 
0.000000 
0.000000 
0.000000 
0.000000 
0.000000 
0.000000 
0.000000 
0.000000 
0.000000 
0.000000 
0.000000 
0.000000 
0.000000 
0.000000 
0.000000 
0.000000 
0.000000 
0.000000 
0.000000 
0.000000 
0.000000 
0.000000 
0.000000 
0.000000 
0.000000 
0.000000 
0.000000 
0.000000 
0.000000 
0.000000 
0.000000 
0.000000 
0.000000 
0.000000 
0.000000 
0.000000 
0.000000 
0.000000 
0.000000 
0.000000 
0.000000 
0.000000 
0.000000 
0.000000 
0.000000 
0.000000 
0.000000 
0.000000 
0.000000 
0.000000 
0.000000 
0.000000 
0.000000 
0.000000 
0.000000 
0.000000 
0.000000 
0.000000 
0.000000 
0.000001 
0.000001 
0.000001 
0.000001 
0.000001 
0.000001 
0.000001 
0.000001 
0.000001 
0.000001 
0.000001 
0.000001 
0.000001 
0.000002 
0.000002 
0.000002 
0.000002 
0.000002 
0.000002 
0.000003 
0.000003 
0.000003 
0.000003 
0.000004 
0.000004 
0.000004 
0.000005 
0.000005 
0.000005 
0.000006 
0.000006 
0.000007 
0.000007 
0.000008 
0.000008 
0.000009 
0.000010 
0.000011 
0.000011 
0.000012 
0.000013 
0.000014 
0.000015 
0.000016 
0.000018 
0.000019 
0.000020 
0.000022 
0.000023 
0.000025 
0.000027 
0.000029 
0.000031 
0.000033 
0.000035 
0.000037 
0.000040 
0.000043 
0.000046 
0.000049 
0.000052 
0.000055 
0.000059 
0.000063 
0.000067 
0.000071 
0.000076 
0.000081 
0.000086 
0.000092 
0.000097 
0.000103 
0.000110 
0.000116 
0.000124 
0.000131 
0.000139 
0.000147 
0.000156 
0.000165 
0.000175 
0.000185 
0.000196 
0.000207 
0.000219 
0.000231 
0.000244 
0.000258 
0.000272 
0.000287 
0.000302 
0.000319 
0.000336 
0.000353 
0.000372 
0.000391 
0.000412 
0.000433 
0.000455 
0.000478 
0.000501 
0.000526 
0.000552 
0.000579 
0.000607 
0.000636 
0.000666 
0.000698 
0.000730 
0.000764 
0.000799 
0.000835 
0.000873 
0.000912 
0.000952 
0.000994 
0.001037 
0.001081 
0.001127 
0.001174 
0.001223 
0.001273 
0.001325 
0.001379 
0.001434 
0.001491 
0.001549 
0.001609 
0.001670 
0.001734 
0.001799 
0.001865 
0.001934 
0.002004 
0.002075 
0.002149 
0.002224 
0.002301 
0.002380 
0.002460 
0.002542 
0.002626 
0.002712 
0.002799 
0.002888 
0.002979 
0.003071 
0.003165 
0.003261 
0.003358 
0.003457 
0.003558 
0.003660 
0.003763 
0.003868 
0.003975 
0.004082 
0.004191 
0.004302 
0.004414 
0.004527 
0.004641 
0.004756 
0.004873 
0.004990 
0.005108 
0.005228 
0.005348 
0.005469 
0.005591 
0.005713 
0.005836 
0.005960 
0.006084 
0.006208 
0.006333 
0.006458 
0.006583 
0.006708 
0.006834 
0.006959 
0.007084 
0.007209 
0.007334 
0.007458 
0.007582 
0.007705 
0.007828 
0.007950 
0.008071 
0.008191 
0.008311 
0.008429 
0.008546 
0.008662 
0.008777 
0.008891 
0.009003 
0.009113 
0.009222 
0.009329 
0.009435 
0.009538 
0.009640 
0.009740 
0.009837 
0.009933 
0.010026 
0.010117 
0.010206 
0.010292 
0.010376 
0.010457 
0.010536 
0.010612 
0.010685 
0.010756 
0.010824 
0.010888 
0.010950 
0.011009 
0.011065 
0.011118 
0.011168 
0.011215 
0.011258 
0.011298 
0.011335 
0.011369 
0.011399 
0.011426 
0.011450 
0.011471 
0.011488 
0.011501 
0.011512 
0.011518 
0.011522 
0.000000 
0.000000 
0.000000 
0.000000 
0.000000 
0.000000 
0.000000 
0.000000 
0.000000 
0.000000 
0.000000 
0.000000 
0.000000 
0.000000 
0.000000 
0.000000 
0.000000 
0.000000 
0.000000 
0.000000 
0.000000 
0.000000 
0.000000 
0.000000 
0.000000 
0.000000 
0.000000 
0.000000 
0.000000 
0.000000 
0.000000 
0.000000 
0.000000 
0.000000 
0.000000 
0.000000 
0.000000 
0.000000 
0.000000 
0.000000 
0.000000 
0.000000 
0.000000 
0.000000 
0.000000 
0.000000 
0.000000 
0.000000 
0.000000 
0.000000 
0.000000 
0.000000 
0.000000 
0.000000 
0.000000 
0.000000 
0.000000 
0.000000 
0.000000 
0.000000 
0.000000 
0.000001 
0.000001 
0.000001 
0.000001 
0.000001 
0.000001 
0.000001 
0.000001 
0.000001 
0.000001 
0.000001 
0.000001 
0.000002 
0.000002 
0.000002 
0.000002 
0.000002 
0.000002 
0.000003 
0.000003 
0.000003 
0.000003 
0.000003 
0.000004 
0.000004 
0.000004 
0.000005 
0.000005 
0.000006 
0.000006 
0.000007 
0.000007 
0.000008 
0.000008 
0.000009 
0.000010 
0.000010 
0.000011 
0.000012 
0.000013 
0.000014 
0.000015 
0.000016 
0.000017 
0.000019 
0.000020 
0.000021 
0.000023 
0.000025 
0.000027 
0.000028 
0.000030 
0.000033 
0.000035 
0.000037 
0.000040 
0.000043 
0.000046 
0.000049 
0.000052 
0.000056 
0.000060 
0.000064 
0.000068 
0.000072 
0.000077 
0.000082 
0.000087 
0.000093 
0.000099 
0.000105 
0.000112 
0.000119 
0.000126 
0.000134 
0.000143 
0.000151 
0.000160 
0.000170 
0.000180 
0.000191 
0.000202 
0.000214 
0.000226 
0.000240 
0.000253 
0.000268 
0.000283 
0.000299 
0.000315 
0.000332 
0.000351 
0.000370 
0.000390 
0.000410 
0.000432 
0.000455 
0.000478 
0.000503 
0.000529 
0.000556 
0.000584 
0.000613 
0.000643 
0.000675 
0.000708 
0.000742 
0.000778 
0.000814 
0.000853 
0.000892 
0.000934 
0.000976 
0.001021 
0.001066 
0.001114 
0.001163 
0.001214 
0.001266 
0.001320 
0.001376 
0.001434 
0.001494 
0.001555 
0.001618 
0.001683 
0.001751 
0.001820 
0.001891 
0.001964 
0.002039 
0.002116 
0.002195 
0.002276 
0.002359 
0.002445 
0.002532 
0.002622 
0.002713 
0.002807 
0.002903 
0.003001 
0.003101 
0.003203 
0.003307 
0.003413 
0.003521 
0.003632 
0.003744 
0.003858 
0.003975 
0.004093 
0.004213 
0.004335 
0.004459 
0.004585 
0.004712 
0.004842 
0.004973 
0.005105 
0.005239 
0.005375 
0.005512 
0.005651 
0.005791 
0.005932 
0.006075 
0.006218 
0.006363 
0.006509 
0.006656 
0.006803 
0.006952 
0.007101 
0.007251 
0.007401 
0.007552 
0.007703 
0.007855 
0.008006 
0.008158 
0.008310 
0.008462 
0.008613 
0.008764 
0.008915 
0.009066 
0.009216 
0.009365 
0.009514 
0.009661 
0.009808 
0.009954 
0.010098 
0.010241 
0.010383 
0.010523 
0.010662 
0.010799 
0.010935 
0.011068 
0.011200 
0.011330 
0.011457 
0.011582 
0.011705 
0.011826 
0.011944 
0.012059 
0.012172 
0.012282 
0.012389 
0.012494 
0.012595 
0.012693 
0.012788 
0.012880 
0.012968 
0.013054 
0.013135 
0.013214 
0.013289 
0.013360 
0.013427 
0.013491 
0.013551 
0.013607 
0.013660 
0.013708 
0.013753 
0.013794 
0.013831 
0.013863 
0.013892 
0.013917 
0.013937 
0.013954 
0.013966 
0.013974 
0.013978 
0.000000 
0.000000 
0.000000 
0.000000 
0.000000 
0.000000 
0.000000 
0.000000 
0.000000 
0.000000 
0.000000 
0.000000 
0.000000 
0.000000 
0.000000 
0.000000 
0.000000 
0.000000 
0.000000 
0.000000 
0.000000 
0.000000 
0.000000 
0.000000 
0.000000 
0.000000 
0.000000 
0.000000 
0.000000 
0.000000 
0.000000 
0.000000 
0.000000 
0.000000 
0.000000 
0.000000 
0.000000 
0.000000 
0.000000 
0.000000 
0.000000 
0.000000 
0.000000 
0.000000 
0.000000 
0.000000 
0.000000 
0.000000 
0.000000 
0.000000 
0.000000 
0.000000 
0.000000 
0.000000 
0.000000 
0.000000 
0.000000 
0.000000 
0.000000 
0.000001 
0.000001 
0.000001 
0.000001 
0.000001 
0.000001 
0.000001 
0.000001 
0.000001 
0.000001 
0.000001 
0.000001 
0.000002 
0.000002 
0.000002 
0.000002 
0.000002 
0.000002 
0.000003 
0.000003 
0.000003 
0.000003 
0.000004 
0.000004 
0.000004 
0.000005 
0.000005 
0.000005 
0.000006 
0.000006 
0.000007 
0.000007 
0.000008 
0.000008 
0.000009 
0.000010 
0.000011 
0.000011 
0.000012 
0.000013 
0.000014 
0.000015 
0.000017 
0.000018 
0.000019 
0.000021 
0.000022 
0.000024 
0.000026 
0.000028 
0.000030 
0.000032 
0.000034 
0.000036 
0.000039 
0.000042 
0.000045 
0.000048 
0.000051 
0.000055 
0.000058 
0.000062 
0.000067 
0.000071 
0.000076 
0.000081 
0.000086 
0.000092 
0.000098 
0.000104 
0.000111 
0.000118 
0.000126 
0.000134 
0.000142 
0.000151 
0.000160 
0.000170 
0.000181 
0.000191 
0.000203 
0.000215 
0.000228 
0.000241 
0.000255 
0.000270 
0.000286 
0.000302 
0.000319 
0.000337 
0.000356 
0.000376 
0.000397 
0.000418 
0.000441 
0.000465 
0.000489 
0.000515 
0.000542 
0.000571 
0.000600 
0.000631 
0.000663 
0.000696 
0.000731 
0.000767 
0.000805 
0.000844 
0.000885 
0.000927 
0.000971 
0.001016 
0.001064 
0.001113 
0.001163 
0.001216 
0.001271 
0.001327 
0.001385 
0.001446 
0.001508 
0.001573 
0.001639 
0.001708 
0.001778 
0.001851 
0.001927 
0.002004 
0.002084 
0.002166 
0.002250 
0.002337 
0.002426 
0.002518 
0.002612 
0.002708 
0.002807 
0.002908 
0.003012 
0.003118 
0.003227 
0.003338 
0.003452 
0.003568 
0.003686 
0.003807 
0.003931 
0.004057 
0.004185 
0.004316 
0.004449 
0.004584 
0.004722 
0.004862 
0.005005 
0.005149 
0.005296 
0.005445 
0.005596 
0.005749 
0.005904 
0.006060 
0.006219 
0.006380 
0.006542 
0.006706 
0.006871 
0.007038 
0.007207 
0.007377 
0.007548 
0.007720 
0.007893 
0.008068 
0.008243 
0.008419 
0.008596 
0.008774 
0.008952 
0.009130 
0.009309 
0.009488 
0.009667 
0.009846 
0.010025 
0.010204 
0.010382 
0.010560 
0.010738 
0.010914 
0.011090 
0.011265 
0.011439 
0.011612 
0.011784 
0.011954 
0.012123 
0.012290 
0.012455 
0.012618 
0.012780 
0.012939 
0.013097 
0.013252 
0.013404 
0.013554 
0.013701 
0.013846 
0.013988 
0.014127 
0.014262 
0.014395 
0.014525 
0.014651 
0.014773 
0.014892 
0.015008 
0.015119 
0.015227 
0.015332 
0.015432 
0.015528 
0.015620 
0.015708 
0.015791 
0.015871 
0.015946 
0.016016 
0.016083 
0.016144 
0.016201 
0.016254 
0.016302 
0.016345 
0.016383 
0.016417 
0.016446 
0.016470 
0.016489 
0.016504 
0.016513 
0.016518 
0.000000 
0.000000 
0.000000 
0.000000 
0.000000 
0.000000 
0.000000 
0.000000 
0.000000 
0.000000 
0.000000 
0.000000 
0.000000 
0.000000 
0.000000 
0.000000 
0.000000 
0.000000 
0.000000 
0.000000 
0.000000 
0.000000 
0.000000 
0.000000 
0.000000 
0.000000 
0.000000 
0.000000 
0.000000 
0.000000 
0.000000 
0.000000 
0.000000 
0.000000 
0.000000 
0.000000 
0.000000 
0.000000 
0.000000 
0.000000 
0.000000 
0.000000 
0.000000 
0.000000 
0.000000 
0.000000 
0.000000 
0.000000 
0.000000 
0.000000 
0.000000 
0.000000 
0.000000 
0.000000 
0.000000 
0.000000 
0.000000 
0.000001 
0.000001 
0.000001 
0.000001 
0.000001 
0.000001 
0.000001 
0.000001 
0.000001 
0.000001 
0.000001 
0.000001 
0.000002 
0.000002 
0.000002 
0.000002 
0.000002 
0.000002 
0.000003 
0.000003 
0.000003 
0.000003 
0.000004 
0.000004 
0.000004 
0.000005 
0.000005 
0.000005 
0.000006 
0.000006 
0.000007 
0.000007 
0.000008 
0.000009 
0.000009 
0.000010 
0.000011 
0.000012 
0.000012 
0.000013 
0.000015 
0.000016 
0.000017 
0.000018 
0.000020 
0.000021 
0.000023 
0.000024 
0.000026 
0.000028 
0.000030 
0.000032 
0.000035 
0.000037 
0.000040 
0.000043 
0.000046 
0.000049 
0.000052 
0.000056 
0.000060 
0.000064 
0.000069 
0.000073 
0.000078 
0.000084 
0.000089 
0.000095 
0.000101 
0.000108 
0.000115 
0.000123 
0.000130 
0.000139 
0.000148 
0.000157 
0.000167 
0.000177 
0.000188 
0.000200 
0.000212 
0.000225 
0.000238 
0.000252 
0.000267 
0.000283 
0.000300 
0.000317 
0.000335 
0.000354 
0.000374 
0.000395 
0.000418 
0.000441 
0.000465 
0.000490 
0.000517 
0.000545 
0.000574 
0.000604 
0.000636 
0.000669 
0.000703 
0.000739 
0.000777 
0.000816 
0.000856 
0.000899 
0.000943 
0.000988 
0.001036 
0.001085 
0.001137 
0.001190 
0.001245 
0.001303 
0.001362 
0.001424 
0.001487 
0.001553 
0.001621 
0.001692 
0.001765 
0.001840 
0.001918 
0.001998 
0.002080 
0.002166 
0.002253 
0.002344 
0.002437 
0.002533 
0.002631 
0.002732 
0.002836 
0.002943 
0.003052 
0.003165 
0.003280 
0.003398 
0.003519 
0.003643 
0.003769 
0.003899 
0.004031 
0.004166 
0.004304 
0.004445 
0.004589 
0.004736 
0.004885 
0.005037 
0.005192 
0.005349 
0.005510 
0.005673 
0.005838 
0.006006 
0.006177 
0.006349 
0.006525 
0.006703 
0.006882 
0.007065 
0.007249 
0.007435 
0.007624 
0.007814 
0.008006 
0.008200 
0.008395 
0.008592 
0.008790 
0.008990 
0.009191 
0.009393 
0.009596 
0.009800 
0.010005 
0.010211 
0.010417 
0.010624 
0.010831 
0.011038 
0.011245 
0.011453 
0.011660 
0.011867 
0.012073 
0.012279 
0.012484 
0.012688 
0.012892 
0.013094 
0.013295 
0.013495 
0.013693 
0.013890 
0.014085 
0.014278 
0.014469 
0.014657 
0.014844 
0.015028 
0.015210 
0.015389 
0.015565 
0.015738 
0.015908 
0.016075 
0.016238 
0.016398 
0.016555 
0.016708 
0.016857 
0.017003 
0.017144 
0.017281 
0.017414 
0.017543 
0.017668 
0.017788 
0.017903 
0.018014 
0.018120 
0.018221 
0.018318 
0.018409 
0.018496 
0.018577 
0.018653 
0.018724 
0.018790 
0.018850 
0.018906 
0.018955 
0.018999 
0.019038 
0.019072 
0.019099 
0.019122 
0.019138 
0.019150 
0.019155 
0.000000 
0.000000 
0.000000 
0.000000 
0.000000 
0.000000 
0.000000 
0.000000 
0.000000 
0.000000 
0.000000 
0.000000 
0.000000 
0.000000 
0.000000 
0.000000 
0.000000 
0.000000 
0.000000 
0.000000 
0.000000 
0.000000 
0.000000 
0.000000 
0.000000 
0.000000 