# vtk DataFile Version 3.0
results.vtk
ASCII
DATASET RECTILINEAR_GRID
DIMENSIONS 301 301 1
X_COORDINATES 301 double
0.000000 0.003333 0.006667 0.010000 0.013333 0.016667 0.020000 0.023333 0.026667 0.030000 0.033333 0.036667 0.040000 0.043333 0.046667 0.050000 0.053333 0.056667 0.060000 0.063333 0.066667 0.070000 0.073333 0.076667 0.080000 0.083333 0.086667 0.090000 0.093333 0.096667 0.100000 0.103333 0.106667 0.110000 0.113333 0.116667 0.120000 0.123333 0.126667 0.130000 0.133333 0.136667 0.140000 0.143333 0.146667 0.150000 0.153333 0.156667 0.160000 0.163333 0.166667 0.170000 0.173333 0.176667 0.180000 0.183333 0.186667 0.190000 0.193333 0.196667 0.200000 0.203333 0.206667 0.210000 0.213333 0.216667 0.220000 0.223333 0.226667 0.230000 0.233333 0.236667 0.240000 0.243333 0.246667 0.250000 0.253333 0.256667 0.260000 0.263333 0.266667 0.270000 0.273333 0.276667 0.280000 0.283333 0.286667 0.290000 0.293333 0.296667 0.300000 0.303333 0.306667 0.310000 0.313333 0.316667 0.320000 0.323333 0.326667 0.330000 0.333333 0.336667 0.340000 0.343333 0.346667 0.350000 0.353333 0.356667 0.360000 0.363333 0.366667 0.370000 0.373333 0.376667 0.380000 0.383333 0.386667 0.390000 0.393333 0.396667 0.400000 0.403333 0.406667 0.410000 0.413333 0.416667 0.420000 0.423333 0.426667 0.430000 0.433333 0.436667 0.440000 0.443333 0.446667 0.450000 0.453333 0.456667 0.460000 0.463333 0.466667 0.470000 0.473333 0.476667 0.480000 0.483333 0.486667 0.490000 0.493333 0.496667 0.500000 0.503333 0.506667 0.510000 0.513333 0.516667 0.520000 0.523333 0.526667 0.530000 0.533333 0.536667 0.540000 0.543333 0.546667 0.550000 0.553333 0.556667 0.560000 0.563333 0.566667 0.570000 0.573333 0.576667 0.580000 0.583333 0.586667 0.590000 0.593333 0.596667 0.600000 0.603333 0.606667 0.610000 0.613333 0.616667 0.620000 0.623333 0.626667 0.630000 0.633333 0.636667 0.640000 0.643333 0.646667 0.650000 0.653333 0.656667 0.660000 0.663333 0.666667 0.670000 0.673333 0.676667 0.680000 0.683333 0.686667 0.690000 0.693333 0.696667 0.700000 0.703333 0.706667 0.710000 0.713333 0.716667 0.720000 0.723333 0.726667 0.730000 0.733333 0.736667 0.740000 0.743333 0.746667 0.750000 0.753333 0.756667 0.760000 0.763333 0.766667 0.770000 0.773333 0.776667 0.780000 0.783333 0.786667 0.790000 0.793333 0.796667 0.800000 0.803333 0.806667 0.810000 0.813333 0.816667 0.820000 0.823333 0.826667 0.830000 0.833333 0.836667 0.840000 0.843333 0.846667 0.850000 0.853333 0.856667 0.860000 0.863333 0.866667 0.870000 0.873333 0.876667 0.880000 0.883333 0.886667 0.890000 0.893333 0.896667 0.900000 0.903333 0.906667 0.910000 0.913333 0.916667 0.920000 0.923333 0.926667 0.930000 0.933333 0.936667 0.940000 0.943333 0.946667 0.950000 0.953333 0.956667 0.960000 0.963333 0.966667 0.970000 0.973333 0.976667 0.980000 0.983333 0.986667 0.990000 0.993333 0.996667 1.000000 
Y_COORDINATES 301 double
0.000000 0.003333 0.006667 0.010000 0.013333 0.016667 0.020000 0.023333 0.026667 0.030000 0.033333 0.036667 0.040000 0.043333 0.046667 0.050000 0.053333 0.056667 0.060000 0.063333 0.066667 0.070000 0.073333 0.076667 0.080000 0.083333 0.086667 0.090000 0.093333 0.096667 0.100000 0.103333 0.106667 0.110000 0.113333 0.116667 0.120000 0.123333 0.126667 0.130000 0.133333 0.136667 0.140000 0.143333 0.146667 0.150000 0.153333 0.156667 0.160000 0.163333 0.166667 0.170000 0.173333 0.176667 0.180000 0.183333 0.186667 0.190000 0.193333 0.196667 0.200000 0.203333 0.206667 0.210000 0.213333 0.216667 0.220000 0.223333 0.226667 0.230000 0.233333 0.236667 0.240000 0.243333 0.246667 0.250000 0.253333 0.256667 0.260000 0.263333 0.266667 0.270000 0.273333 0.276667 0.280000 0.283333 0.286667 0.290000 0.293333 0.296667 0.300000 0.303333 0.306667 0.310000 0.313333 0.316667 0.320000 0.323333 0.326667 0.330000 0.333333 0.336667 0.340000 0.343333 0.346667 0.350000 0.353333 0.356667 0.360000 0.363333 0.366667 0.370000 0.373333 0.376667 0.380000 0.383333 0.386667 0.390000 0.393333 0.396667 0.400000 0.403333 0.406667 0.410000 0.413333 0.416667 0.420000 0.423333 0.426667 0.430000 0.433333 0.436667 0.440000 0.443333 0.446667 0.450000 0.453333 0.456667 0.460000 0.463333 0.466667 0.470000 0.473333 0.476667 0.480000 0.483333 0.486667 0.490000 0.493333 0.496667 0.500000 0.503333 0.506667 0.510000 0.513333 0.516667 0.520000 0.523333 0.526667 0.530000 0.533333 0.536667 0.540000 0.543333 0.546667 0.550000 0.553333 0.556667 0.560000 0.563333 0.566667 0.570000 0.573333 0.576667 0.580000 0.583333 0.586667 0.590000 0.593333 0.596667 0.600000 0.603333 0.606667 0.610000 0.613333 0.616667 0.620000 0.623333 0.626667 0.630000 0.633333 0.636667 0.640000 0.643333 0.646667 0.650000 0.653333 0.656667 0.660000 0.663333 0.666667 0.670000 0.673333 0.676667 0.680000 0.683333 0.686667 0.690000 0.693333 0.696667 0.700000 0.703333 0.706667 0.710000 0.713333 0.716667 0.720000 0.723333 0.726667 0.730000 0.733333 0.736667 0.740000 0.743333 0.746667 0.750000 0.753333 0.756667 0.760000 0.763333 0.766667 0.770000 0.773333 0.776667 0.780000 0.783333 0.786667 0.790000 0.793333 0.796667 0.800000 0.803333 0.806667 0.810000 0.813333 0.816667 0.820000 0.823333 0.826667 0.830000 0.833333 0.836667 0.840000 0.843333 0.846667 0.850000 0.853333 0.856667 0.860000 0.863333 0.866667 0.870000 0.873333 0.876667 0.880000 0.883333 0.886667 0.890000 0.893333 0.896667 0.900000 0.903333 0.906667 0.910000 0.913333 0.916667 0.920000 0.923333 0.926667 0.930000 0.933333 0.936667 0.940000 0.943333 0.946667 0.950000 0.953333 0.956667 0.960000 0.963333 0.966667 0.970000 0.973333 0.976667 0.980000 0.983333 0.986667 0.990000 0.993333 0.996667 1.000000 
Z_COORDINATES 1 double
0
POINT_DATA 90601 
FIELD FieldData 1 
Concentração 1 90601 double 
0.000000 
0.000000 
0.000000 
0.000000 
0.000000 
0.000000 
0.000000 
0.000000 
0.000000 
0.000000 
0.000000 
0.000000 
0.000000 
0.000000 
0.000000 
0.000000 
0.000000 
0.000000 
0.000000 
0.000000 
0.000000 
0.000000 
0.000000 
0.000000 
0.000000 
0.000000 
0.000000 
0.000000 
0.000000 
0.000000 
0.000000 
0.000000 
0.000000 
0.000000 
0.000000 
0.000000 
0.000000 
0.000000 
0.000000 
0.000000 
0.000000 
0.000000 
0.000000 
0.000000 
0.000000 
0.000000 
0.000000 
0.000000 
0.000000 
0.000000 
0.000000 
0.000000 
0.000000 
0.000000 
0.000000 
0.000000 
0.000000 
0.000000 
0.000000 
0.000000 
0.000000 
0.000000 
0.000000 
0.000000 
0.000000 
0.000000 
0.000000 
0.000000 
0.000000 
0.000000 
0.000000 
0.000000 
0.000000 
0.000000 
0.000000 
0.000000 
0.000000 
0.000000 
0.000000 
0.000000 
0.000000 
0.000000 
0.000000 
0.000000 
0.000000 
0.000000 
0.000000 
0.000001 
0.000001 
0.000001 
0.000001 
0.000001 
0.000001 
0.000001 
0.000001 
0.000001 
0.000001 
0.000001 
0.000001 
0.000001 
0.000001 
0.000002 
0.000002 
0.000002 
0.000002 
0.000002 
0.000002 
0.000002 
0.000003 
0.000003 
0.000003 
0.000003 
0.000003 
0.000004 
0.000004 
0.000004 
0.000004 
0.000005 
0.000005 
0.000005 
0.000006 
0.000006 
0.000007 
0.000007 
0.000007 
0.000008 
0.000009 
0.000009 
0.000010 
0.000010 
0.000011 
0.000012 
0.000012 
0.000013 
0.000014 
0.000015 
0.000016 
0.000017 
0.000018 
0.000019 
0.000020 
0.000021 
0.000023 
0.000024 
0.000025 
0.000027 
0.000028 
0.000030 
0.000032 
0.000034 
0.000036 
0.000037 
0.000040 
0.000042 
0.000044 
0.000046 
0.000049 
0.000052 
0.000054 
0.000057 
0.000060 
0.000063 
0.000066 
0.000070 
0.000073 
0.000077 
0.000081 
0.000085 
0.000089 
0.000093 
0.000098 
0.000102 
0.000107 
0.000112 
0.000117 
0.000123 
0.000128 
0.000134 
0.000140 
0.000146 
0.000153 
0.000159 
0.000166 
0.000173 
0.000180 
0.000188 
0.000196 
0.000204 
0.000212 
0.000220 
0.000229 
0.000238 
0.000247 
0.000257 
0.000266 
0.000276 
0.000287 
0.000297 
0.000308 
0.000319 
0.000330 
0.000342 
0.000354 
0.000366 
0.000378 
0.000391 
0.000404 
0.000417 
0.000431 
0.000444 
0.000458 
0.000473 
0.000487 
0.000502 
0.000517 
0.000532 
0.000548 
0.000563 
0.000579 
0.000596 
0.000612 
0.000629 
0.000646 
0.000663 
0.000680 
0.000697 
0.000715 
0.000733 
0.000751 
0.000769 
0.000787 
0.000806 
0.000824 
0.000843 
0.000862 
0.000881 
0.000900 
0.000919 
0.000938 
0.000957 
0.000976 
0.000996 
0.001015 
0.001034 
0.001054 
0.001073 
0.001092 
0.001111 
0.001131 
0.001150 
0.001169 
0.001188 
0.001207 
0.001225 
0.001244 
0.001263 
0.001281 
0.001299 
0.001317 
0.001335 
0.001352 
0.001370 
0.001387 
0.001403 
0.001420 
0.001436 
0.001452 
0.001468 
0.001483 
0.001498 
0.001513 
0.001528 
0.001542 
0.001555 
0.001568 
0.001581 
0.001594 
0.001606 
0.001617 
0.001629 
0.001639 
0.001650 
0.001659 
0.001669 
0.001678 
0.001686 
0.001694 
0.001701 
0.001708 
0.001715 
0.001721 
0.001726 
0.001731 
0.001735 
0.001739 
0.001742 
0.001745 
0.001747 
0.001749 
0.001750 
0.001750 
0.000000 
0.000000 
0.000000 
0.000000 
0.000000 
0.000000 
0.000000 
0.000000 
0.000000 
0.000000 
0.000000 
0.000000 
0.000000 
0.000000 
0.000000 
0.000000 
0.000000 
0.000000 
0.000000 
0.000000 
0.000000 
0.000000 
0.000000 
0.000000 
0.000000 
0.000000 
0.000000 
0.000000 
0.000000 
0.000000 
0.000000 
0.000000 
0.000000 
0.000000 
0.000000 
0.000000 
0.000000 
0.000000 
0.000000 
0.000000 
0.000000 
0.000000 
0.000000 
0.000000 
0.000000 
0.000000 
0.000000 
0.000000 
0.000000 
0.000000 
0.000000 
0.000000 
0.000000 
0.000000 
0.000000 
0.000000 
0.000000 
0.000000 
0.000000 
0.000000 
0.000000 
0.000000 
0.000000 
0.000000 
0.000000 
0.000000 
0.000000 
0.000000 
0.000000 
0.000000 
0.000000 
0.000000 
0.000000 
0.000000 
0.000000 
0.000000 
0.000000 
0.000000 
0.000000 
0.000001 
0.000001 
0.000001 
0.000001 
0.000001 
0.000001 
0.000001 
0.000001 
0.000001 
0.000001 
0.000001 
0.000001 
0.000001 
0.000002 
0.000002 
0.000002 
0.000002 
0.000002 
0.000002 
0.000002 
0.000003 
0.000003 
0.000003 
0.000003 
0.000004 
0.000004 
0.000004 
0.000004 
0.000005 
0.000005 
0.000005 
0.000006 
0.000006 
0.000007 
0.000007 
0.000008 
0.000008 
0.000009 
0.000009 
0.000010 
0.000011 
0.000012 
0.000012 
0.000013 
0.000014 
0.000015 
0.000016 
0.000017 
0.000018 
0.000019 
0.000021 
0.000022 
0.000024 
0.000025 
0.000027 
0.000028 
0.000030 
0.000032 
0.000034 
0.000036 
0.000038 
0.000041 
0.000043 
0.000046 
0.000048 
0.000051 
0.000054 
0.000057 
0.000060 
0.000064 
0.000068 
0.000071 
0.000075 
0.000080 
0.000084 
0.000089 
0.000093 
0.000098 
0.000104 
0.000109 
0.000115 
0.000121 
0.000127 
0.000134 
0.000140 
0.000147 
0.000155 
0.000163 
0.000170 
0.000179 
0.000187 
0.000196 
0.000206 
0.000215 
0.000225 
0.000236 
0.000247 
0.000258 
0.000269 
0.000281 
0.000294 
0.000307 
0.000320 
0.000334 
0.000348 
0.000363 
0.000378 
0.000393 
0.000409 
0.000426 
0.000443 
0.000460 
0.000478 
0.000497 
0.000516 
0.000535 
0.000556 
0.000576 
0.000597 
0.000619 
0.000641 
0.000664 
0.000687 
0.000711 
0.000735 
0.000760 
0.000786 
0.000812 
0.000838 
0.000865 
0.000893 
0.000921 
0.000950 
0.000979 
0.001008 
0.001039 
0.001069 
0.001100 
0.001132 
0.001164 
0.001197 
0.001230 
0.001263 
0.001297 
0.001331 
0.001366 
0.001401 
0.001436 
0.001472 
0.001508 
0.001544 
0.001581 
0.001618 
0.001655 
0.001693 
0.001731 
0.001769 
0.001807 
0.001845 
0.001883 
0.001922 
0.001961 
0.001999 
0.002038 
0.002077 
0.002116 
0.002154 
0.002193 
0.002232 
0.002270 
0.002309 
0.002347 
0.002385 
0.002423 
0.002460 
0.002498 
0.002535 
0.002571 
0.002608 
0.002644 
0.002679 
0.002715 
0.002749 
0.002784 
0.002817 
0.002851 
0.002883 
0.002915 
0.002947 
0.002978 
0.003008 
0.003037 
0.003066 
0.003094 
0.003122 
0.003148 
0.003174 
0.003199 
0.003223 
0.003246 
0.003269 
0.003290 
0.003311 
0.003331 
0.003349 
0.003367 
0.003384 
0.003400 
0.003415 
0.003429 
0.003441 
0.003453 
0.003464 
0.003474 
0.003482 
0.003490 
0.003496 
0.003502 
0.003506 
0.003509 
0.003512 
0.003513 
0.000000 
0.000000 
0.000000 
0.000000 
0.000000 
0.000000 
0.000000 
0.000000 
0.000000 
0.000000 
0.000000 
0.000000 
0.000000 
0.000000 
0.000000 
0.000000 
0.000000 
0.000000 
0.000000 
0.000000 
0.000000 
0.000000 
0.000000 
0.000000 
0.000000 
0.000000 
0.000000 
0.000000 
0.000000 
0.000000 
0.000000 
0.000000 
0.000000 
0.000000 
0.000000 
0.000000 
0.000000 
0.000000 
0.000000 
0.000000 
0.000000 
0.000000 
0.000000 
0.000000 
0.000000 
0.000000 
0.000000 
0.000000 
0.000000 
0.000000 
0.000000 
0.000000 
0.000000 
0.000000 
0.000000 
0.000000 
0.000000 
0.000000 
0.000000 
0.000000 
0.000000 
0.000000 
0.000000 
0.000000 
0.000000 
0.000000 
0.000000 
0.000000 
0.000000 
0.000000 
0.000000 
0.000000 
0.000000 
0.000000 
0.000001 
0.000001 
0.000001 
0.000001 
0.000001 
0.000001 
0.000001 
0.000001 
0.000001 
0.000001 
0.000001 
0.000001 
0.000001 
0.000002 
0.000002 
0.000002 
0.000002 
0.000002 
0.000002 
0.000003 
0.000003 
0.000003 
0.000003 
0.000003 
0.000004 
0.000004 
0.000004 
0.000005 
0.000005 
0.000005 
0.000006 
0.000006 
0.000007 
0.000007 
0.000008 
0.000008 
0.000009 
0.000009 
0.000010 
0.000011 
0.000012 
0.000013 
0.000013 
0.000014 
0.000015 
0.000016 
0.000018 
0.000019 
0.000020 
0.000021 
0.000023 
0.000024 
0.000026 
0.000028 
0.000030 
0.000031 
0.000033 
0.000036 
0.000038 
0.000040 
0.000043 
0.000046 
0.000048 
0.000051 
0.000055 
0.000058 
0.000061 
0.000065 
0.000069 
0.000073 
0.000077 
0.000082 
0.000087 
0.000092 
0.000097 
0.000102 
0.000108 
0.000114 
0.000120 
0.000127 
0.000134 
0.000141 
0.000149 
0.000157 
0.000165 
0.000174 
0.000183 
0.000192 
0.000202 
0.000212 
0.000223 
0.000234 
0.000246 
0.000258 
0.000271 
0.000284 
0.000297 
0.000311 
0.000326 
0.000341 
0.000357 
0.000373 
0.000390 
0.000408 
0.000426 
0.000445 
0.000464 
0.000484 
0.000505 
0.000526 
0.000548 
0.000571 
0.000595 
0.000619 
0.000644 
0.000670 
0.000696 
0.000723 
0.000751 
0.000780 
0.000810 
0.000840 
0.000871 
0.000903 
0.000936 
0.000970 
0.001004 
0.001039 
0.001075 
0.001112 
0.001150 
0.001188 
0.001227 
0.001267 
0.001308 
0.001350 
0.001392 
0.001435 
0.001479 
0.001524 
0.001570 
0.001616 
0.001663 
0.001711 
0.001759 
0.001808 
0.001858 
0.001908 
0.001960 
0.002011 
0.002064 
0.002116 
0.002170 
0.002224 
0.002278 
0.002333 
0.002389 
0.002445 
0.002501 
0.002557 
0.002614 
0.002671 
0.002729 
0.002787 
0.002845 
0.002903 
0.002961 
0.003019 
0.003078 
0.003136 
0.003195 
0.003253 
0.003312 
0.003370 
0.003428 
0.003486 
0.003543 
0.003601 
0.003658 
0.003714 
0.003771 
0.003826 
0.003882 
0.003937 
0.003991 
0.004044 
0.004097 
0.004150 
0.004201 
0.004252 
0.004302 
0.004351 
0.004400 
0.004447 
0.004494 
0.004539 
0.004584 
0.004627 
0.004669 
0.004711 
0.004751 
0.004789 
0.004827 
0.004863 
0.004898 
0.004932 
0.004965 
0.004996 
0.005025 
0.005053 
0.005080 
0.005106 
0.005130 
0.005152 
0.005173 
0.005192 
0.005210 
0.005226 
0.005241 
0.005254 
0.005265 
0.005275 
0.005283 
0.005290 
0.005295 
0.005298 
0.005299 
0.000000 
0.000000 
0.000000 
0.000000 
0.000000 
0.000000 
0.000000 
0.000000 
0.000000 
0.000000 
0.000000 
0.000000 
0.000000 
0.000000 
0.000000 
0.000000 
0.000000 
0.000000 
0.000000 
0.000000 
0.000000 
0.000000 
0.000000 
0.000000 
0.000000 
0.000000 
0.000000 
0.000000 
0.000000 
0.000000 
0.000000 
0.000000 
0.000000 
0.000000 
0.000000 
0.000000 
0.000000 
0.000000 
0.000000 
0.000000 
0.000000 
0.000000 
0.000000 
0.000000 
0.000000 
0.000000 
0.000000 
0.000000 
0.000000 
0.000000 
0.000000 
0.000000 
0.000000 
0.000000 
0.000000 
0.000000 
0.000000 
0.000000 
0.000000 
0.000000 
0.000000 
0.000000 
0.000000 
0.000000 
0.000000 
0.000000 
0.000000 
0.000000 
0.000000 
0.000000 
0.000001 
0.000001 
0.000001 
0.000001 
0.000001 
0.000001 
0.000001 
0.000001 
0.000001 
0.000001 
0.000001 
0.000001 
0.000001 
0.000002 
0.000002 
0.000002 
0.000002 
0.000002 
0.000002 
0.000002 
0.000003 
0.000003 
0.000003 
0.000003 
0.000004 
0.000004 
0.000004 
0.000005 
0.000005 
0.000005 
0.000006 
0.000006 
0.000007 
0.000007 
0.000008 
0.000008 
0.000009 
0.000010 
0.000010 
0.000011 
0.000012 
0.000013 
0.000014 
0.000015 
0.000016 
0.000017 
0.000018 
0.000019 
0.000021 
0.000022 
0.000024 
0.000025 
0.000027 
0.000029 
0.000031 
0.000033 
0.000035 
0.000037 
0.000040 
0.000042 
0.000045 
0.000048 
0.000051 
0.000054 
0.000058 
0.000062 
0.000065 
0.000069 
0.000074 
0.000078 
0.000083 
0.000088 
0.000093 
0.000099 
0.000104 
0.000111 
0.000117 
0.000124 
0.000131 
0.000138 
0.000146 
0.000154 
0.000163 
0.000172 
0.000181 
0.000191 
0.000201 
0.000212 
0.000223 
0.000235 
0.000247 
0.000260 
0.000273 
0.000287 
0.000301 
0.000316 
0.000332 
0.000348 
0.000365 
0.000383 
0.000401 
0.000420 
0.000440 
0.000460 
0.000482 
0.000504 
0.000527 
0.000550 
0.000575 
0.000600 
0.000626 
0.000653 
0.000681 
0.000710 
0.000740 
0.000771 
0.000802 
0.000835 
0.000869 
0.000903 
0.000939 
0.000976 
0.001014 
0.001052 
0.001092 
0.001133 
0.001175 
0.001218 
0.001262 
0.001307 
0.001354 
0.001401 
0.001450 
0.001499 
0.001550 
0.001601 
0.001654 
0.001708 
0.001763 
0.001819 
0.001876 
0.001935 
0.001994 
0.002054 
0.002115 
0.002178 
0.002241 
0.002305 
0.002370 
0.002436 
0.002503 
0.002571 
0.002640 
0.002709 
0.002780 
0.002851 
0.002922 
0.002995 
0.003068 
0.003142 
0.003217 
0.003292 
0.003367 
0.003443 
0.003520 
0.003597 
0.003674 
0.003751 
0.003829 
0.003907 
0.003986 
0.004064 
0.004143 
0.004221 
0.004300 
0.004378 
0.004456 
0.004535 
0.004612 
0.004690 
0.004767 
0.004844 
0.004921 
0.004997 
0.005073 
0.005147 
0.005222 
0.005295 
0.005368 
0.005440 
0.005511 
0.005581 
0.005651 
0.005719 
0.005786 
0.005852 
0.005917 
0.005980 
0.006043 
0.006104 
0.006163 
0.006221 
0.006278 
0.006333 
0.006387 
0.006439 
0.006489 
0.006538 
0.006585 
0.006630 
0.006674 
0.006716 
0.006755 
0.006793 
0.006829 
0.006863 
0.006895 
0.006925 
0.006953 
0.006979 
0.007003 
0.007024 
0.007044 
0.007061 
0.007077 
0.007090 
0.007101 
0.007110 
0.007116 
0.007121 
0.007123 
0.000000 
0.000000 
0.000000 
0.000000 
0.000000 
0.000000 
0.000000 
0.000000 
0.000000 
0.000000 
0.000000 
0.000000 
0.000000 
0.000000 
0.000000 
0.000000 
0.000000 
0.000000 
0.000000 
0.000000 
0.000000 
0.000000 
0.000000 
0.000000 
0.000000 
0.000000 
0.000000 
0.000000 
0.000000 
0.000000 
0.000000 
0.000000 
0.000000 
0.000000 
0.000000 
0.000000 
0.000000 
0.000000 
0.000000 
0.000000 
0.000000 
0.000000 
0.000000 
0.000000 
0.000000 
0.000000 
0.000000 
0.000000 
0.000000 
0.000000 
0.000000 
0.000000 
0.000000 
0.000000 
0.000000 
0.000000 
0.000000 
0.000000 
0.000000 
0.000000 
0.000000 
0.000000 
0.000000 
0.000000 
0.000000 
0.000000 
0.000000 
0.000001 
0.000001 
0.000001 
0.000001 
0.000001 
0.000001 
0.000001 
0.000001 
0.000001 
0.000001 
0.000001 
0.000001 
0.000001 
0.000002 
0.000002 
0.000002 
0.000002 
0.000002 
0.000002 
0.000002 
0.000003 
0.000003 
0.000003 
0.000003 
0.000004 
0.000004 
0.000004 
0.000005 
0.000005 
0.000005 
0.000006 
0.000006 
0.000007 
0.000007 
0.000008 
0.000009 
0.000009 
0.000010 
0.000011 
0.000011 
0.000012 
0.000013 
0.000014 
0.000015 
0.000016 
0.000017 
0.000019 
0.000020 
0.000021 
0.000023 
0.000025 
0.000026 
0.000028 
0.000030 
0.000032 
0.000034 
0.000037 
0.000039 
0.000042 
0.000045 
0.000048 
0.000051 
0.000054 
0.000057 
0.000061 
0.000065 
0.000069 
0.000074 
0.000078 
0.000083 
0.000088 
0.000094 
0.000099 
0.000105 
0.000112 
0.000118 
0.000125 
0.000133 
0.000140 
0.000149 
0.000157 
0.000166 
0.000176 
0.000185 
0.000196 
0.000207 
0.000218 
0.000230 
0.000242 
0.000255 
0.000269 
0.000283 
0.000298 
0.000314 
0.000330 
0.000347 
0.000364 
0.000383 
0.000402 
0.000422 
0.000442 
0.000464 
0.000486 
0.000509 
0.000534 
0.000559 
0.000585 
0.000612 
0.000640 
0.000668 
0.000698 
0.000729 
0.000762 
0.000795 
0.000829 
0.000865 
0.000901 
0.000939 
0.000978 
0.001018 
0.001060 
0.001102 
0.001146 
0.001191 
0.001238 
0.001286 
0.001335 
0.001385 
0.001437 
0.001490 
0.001545 
0.001601 
0.001658 
0.001716 
0.001776 
0.001838 
0.001900 
0.001965 
0.002030 
0.002097 
0.002165 
0.002235 
0.002306 
0.002378 
0.002452 
0.002526 
0.002603 
0.002680 
0.002759 
0.002839 
0.002920 
0.003002 
0.003086 
0.003170 
0.003256 
0.003343 
0.003431 
0.003520 
0.003610 
0.003700 
0.003792 
0.003884 
0.003978 
0.004072 
0.004167 
0.004262 
0.004358 
0.004455 
0.004552 
0.004649 
0.004747 
0.004845 
0.004944 
0.005043 
0.005142 
0.005241 
0.005340 
0.005439 
0.005538 
0.005636 
0.005735 
0.005833 
0.005931 
0.006029 
0.006126 
0.006222 
0.006318 
0.006413 
0.006508 
0.006601 
0.006694 
0.006786 
0.006876 
0.006966 
0.007054 
0.007142 
0.007228 
0.007312 
0.007395 
0.007477 
0.007557 
0.007636 
0.007712 
0.007787 
0.007861 
0.007932 
0.008002 
0.008069 
0.008135 
0.008198 
0.008260 
0.008319 
0.008376 
0.008430 
0.008483 
0.008533 
0.008580 
0.008626 
0.008668 
0.008709 
0.008746 
0.008782 
0.008814 
0.008844 
0.008871 
0.008896 
0.008918 
0.008937 
0.008954 
0.008968 
0.008979 
0.008987 
0.008992 
0.008995 
0.000000 
0.000000 
0.000000 
0.000000 
0.000000 
0.000000 
0.000000 
0.000000 
0.000000 
0.000000 
0.000000 
0.000000 
0.000000 
0.000000 
0.000000 
0.000000 
0.000000 
0.000000 
0.000000 
0.000000 
0.000000 
0.000000 
0.000000 
0.000000 
0.000000 
0.000000 
0.000000 
0.000000 
0.000000 
0.000000 
0.000000 
0.000000 
0.000000 
0.000000 
0.000000 
0.000000 
0.000000 
0.000000 
0.000000 
0.000000 
0.000000 
0.000000 
0.000000 
0.000000 
0.000000 
0.000000 
0.000000 
0.000000 
0.000000 
0.000000 
0.000000 
0.000000 
0.000000 
0.000000 
0.000000 
0.000000 
0.000000 
0.000000 
0.000000 
0.000000 
0.000000 
0.000000 
0.000000 
0.000000 
0.000000 
0.000001 
0.000001 
0.000001 
0.000001 
0.000001 
0.000001 
0.000001 
0.000001 
0.000001 
0.000001 
0.000001 
0.000001 
0.000001 
0.000002 
0.000002 
0.000002 
0.000002 
0.000002 
0.000002 
0.000003 
0.000003 
0.000003 
0.000003 
0.000004 
0.000004 
0.000004 
0.000005 
0.000005 
0.000005 
0.000006 
0.000006 
0.000007 
0.000007 
0.000008 
0.000008 
0.000009 
0.000010 
0.000010 
0.000011 
0.000012 
0.000013 
0.000014 
0.000015 
0.000016 
0.000017 
0.000019 
0.000020 
0.000021 
0.000023 
0.000025 
0.000026 
0.000028 
0.000030 
0.000032 
0.000035 
0.000037 
0.000039 
0.000042 
0.000045 
0.000048 
0.000051 
0.000055 
0.000058 
0.000062 
0.000066 
0.000070 
0.000075 
0.000080 
0.000085 
0.000090 
0.000096 
0.000102 
0.000108 
0.000115 
0.000122 
0.000129 
0.000137 
0.000145 
0.000153 
0.000162 
0.000172 
0.000182 
0.000192 
0.000203 
0.000215 
0.000227 
0.000240 
0.000253 
0.000267 
0.000281 
0.000297 
0.000313 
0.000329 
0.000347 
0.000365 
0.000384 
0.000403 
0.000424 
0.000446 
0.000468 
0.000491 
0.000516 
0.000541 
0.000567 
0.000595 
0.000623 
0.000652 
0.000683 
0.000715 
0.000748 
0.000782 
0.000817 
0.000854 
0.000892 
0.000931 
0.000971 
0.001013 
0.001057 
0.001101 
0.001147 
0.001195 
0.001244 
0.001295 
0.001347 
0.001400 
0.001455 
0.001512 
0.001570 
0.001630 
0.001692 
0.001755 
0.001820 
0.001886 
0.001954 
0.002024 
0.002096 
0.002169 
0.002243 
0.002320 
0.002398 
0.002478 
0.002559 
0.002642 
0.002727 
0.002813 
0.002901 
0.002991 
0.003082 
0.003175 
0.003269 
0.003365 
0.003462 
0.003561 
0.003661 
0.003763 
0.003866 
0.003970 
0.004076 
0.004182 
0.004290 
0.004400 
0.004510 
0.004621 
0.004734 
0.004847 
0.004961 
0.005076 
0.005192 
0.005309 
0.005426 
0.005544 
0.005663 
0.005782 
0.005901 
0.006020 
0.006140 
0.006260 
0.006381 
0.006501 
0.006621 
0.006741 
0.006861 
0.006980 
0.007100 
0.007218 
0.007337 
0.007454 
0.007571 
0.007687 
0.007803 
0.007917 
0.008031 
0.008143 
0.008254 
0.008364 
0.008473 
0.008580 
0.008685 
0.008790 
0.008892 
0.008993 
0.009092 
0.009189 
0.009284 
0.009377 
0.009467 
0.009556 
0.009643 
0.009727 
0.009809 
0.009888 
0.009965 
0.010039 
0.010111 
0.010180 
0.010246 
0.010309 
0.010370 
0.010427 
0.010482 
0.010534 
0.010582 
0.010628 
0.010671 
0.010710 
0.010746 
0.010779 
0.010809 
0.010836 
0.010859 
0.010879 
0.010896 
0.010909 
0.010919 
0.010926 
0.010929 
0.000000 
0.000000 
0.000000 
0.000000 
0.000000 
0.000000 
0.000000 
0.000000 
0.000000 
0.000000 
0.000000 
0.000000 
0.000000 
0.000000 
0.000000 
0.000000 
0.000000 
0.000000 
0.000000 
0.000000 
0.000000 
0.000000 
0.000000 
0.000000 
0.000000 
0.000000 
0.000000 
0.000000 
0.000000 
0.000000 
0.000000 
0.000000 
0.000000 
0.000000 
0.000000 
0.000000 
0.000000 
0.000000 
0.000000 
0.000000 
0.000000 
0.000000 
0.000000 
0.000000 
0.000000 
0.000000 
0.000000 
0.000000 
0.000000 
0.000000 
0.000000 
0.000000 
0.000000 
0.000000 
0.000000 
0.000000 
0.000000 
0.000000 
0.000000 
0.000000 
0.000000 
0.000000 
0.000000 
0.000001 
0.000001 
0.000001 
0.000001 
0.000001 
0.000001 
0.000001 
0.000001 
0.000001 
0.000001 
0.000001 
0.000001 
0.000001 
0.000002 
0.000002 
0.000002 
0.000002 
0.000002 
0.000002 
0.000003 
0.000003 
0.000003 
0.000003 
0.000004 
0.000004 
0.000004 
0.000005 
0.000005 
0.000005 
0.000006 
0.000006 
0.000007 
0.000007 
0.000008 
0.000009 
0.000009 
0.000010 
0.000011 
0.000012 
0.000012 
0.000013 
0.000014 
0.000016 
0.000017 
0.000018 
0.000019 
0.000021 
0.000022 
0.000024 
0.000026 
0.000027 
0.000029 
0.000031 
0.000034 
0.000036 
0.000039 
0.000041 
0.000044 
0.000047 
0.000050 
0.000054 
0.000057 
0.000061 
0.000065 
0.000070 
0.000074 
0.000079 
0.000084 
0.000089 
0.000095 
0.000101 
0.000108 
0.000114 
0.000121 
0.000129 
0.000137 
0.000145 
0.000154 
0.000163 
0.000173 
0.000183 
0.000194 
0.000205 
0.000217 
0.000230 
0.000243 
0.000257 
0.000271 
0.000286 
0.000302 
0.000318 
0.000336 
0.000354 
0.000373 
0.000393 
0.000414 
0.000435 
0.000458 
0.000481 
0.000506 
0.000532 
0.000558 
0.000586 
0.000615 
0.000645 
0.000677 
0.000709 
0.000743 
0.000778 
0.000815 
0.000852 
0.000892 
0.000932 
0.000974 
0.001018 
0.001063 
0.001110 
0.001158 
0.001208 
0.001259 
0.001313 
0.001368 
0.001424 
0.001482 
0.001543 
0.001605 
0.001668 
0.001734 
0.001801 
0.001871 
0.001942 
0.002015 
0.002090 
0.002167 
0.002246 
0.002327 
0.002410 
0.002495 
0.002582 
0.002670 
0.002761 
0.002854 
0.002949 
0.003045 
0.003144 
0.003244 
0.003347 
0.003451 
0.003558 
0.003666 
0.003776 
0.003888 
0.004001 
0.004117 
0.004234 
0.004352 
0.004473 
0.004595 
0.004718 
0.004844 
0.004970 
0.005098 
0.005227 
0.005358 
0.005490 
0.005623 
0.005757 
0.005893 
0.006029 
0.006166 
0.006304 
0.006443 
0.006582 
0.006722 
0.006863 
0.007004 
0.007145 
0.007287 
0.007429 
0.007571 
0.007713 
0.007855 
0.007997 
0.008139 
0.008280 
0.008421 
0.008561 
0.008701 
0.008840 
0.008978 
0.009115 
0.009251 
0.009386 
0.009520 
0.009653 
0.009784 
0.009914 
0.010042 
0.010168 
0.010293 
0.010415 
0.010536 
0.010655 
0.010772 
0.010886 
0.010998 
0.011108 
0.011215 
0.011319 
0.011421 
0.011520 
0.011617 
0.011710 
0.011801 
0.011888 
0.011973 
0.012054 
0.012132 
0.012207 
0.012278 
0.012346 
0.012410 
0.012471 
0.012529 
0.012582 
0.012633 
0.012679 
0.012722 
0.012760 
0.012796 
0.012827 
0.012854 
0.012878 
0.012897 
0.012913 
0.012925 
0.012933 
0.012937 
0.000000 
0.000000 
0.000000 
0.000000 
0.000000 
0.000000 
0.000000 
0.000000 
0.000000 
0.000000 
0.000000 
0.000000 
0.000000 
0.000000 
0.000000 
0.000000 
0.000000 
0.000000 
0.000000 
0.000000 
0.000000 
0.000000 
0.000000 
0.000000 
0.000000 
0.000000 
0.000000 
0.000000 
0.000000 
0.000000 
0.000000 
0.000000 
0.000000 
0.000000 
0.000000 
0.000000 
0.000000 
0.000000 
0.000000 
0.000000 
0.000000 
0.000000 
0.000000 
0.000000 
0.000000 
0.000000 
0.000000 
0.000000 
0.000000 
0.000000 
0.000000 
0.000000 
0.000000 
0.000000 
0.000000 
0.000000 
0.000000 
0.000000 
0.000000 
0.000000 
0.000000 
0.000001 
0.000001 
0.000001 
0.000001 
0.000001 
0.000001 
0.000001 
0.000001 
0.000001 
0.000001 
0.000001 
0.000001 
0.000001 
0.000002 
0.000002 
0.000002 
0.000002 
0.000002 
0.000002 
0.000003 
0.000003 
0.000003 
0.000003 
0.000004 
0.000004 
0.000004 
0.000005 
0.000005 
0.000005 
0.000006 
0.000006 
0.000007 
0.000007 
0.000008 
0.000009 
0.000009 
0.000010 
0.000011 
0.000012 
0.000013 
0.000014 
0.000015 
0.000016 
0.000017 
0.000018 
0.000020 
0.000021 
0.000023 
0.000024 
0.000026 
0.000028 
0.000030 
0.000032 
0.000034 
0.000037 
0.000040 
0.000042 
0.000045 
0.000048 
0.000052 
0.000055 
0.000059 
0.000063 
0.000067 
0.000072 
0.000077 
0.000082 
0.000087 
0.000093 
0.000099 
0.000105 
0.000112 
0.000119 
0.000126 
0.000134 
0.000143 
0.000151 
0.000161 
0.000170 
0.000181 
0.000192 
0.000203 
0.000215 
0.000228 
0.000241 
0.000255 
0.000269 
0.000285 
0.000301 
0.000318 
0.000336 
0.000354 
0.000374 
0.000394 
0.000415 
0.000437 
0.000461 
0.000485 
0.000510 
0.000537 
0.000565 
0.000593 
0.000623 
0.000655 
0.000687 
0.000721 
0.000756 
0.000793 
0.000831 
0.000871 
0.000912 
0.000955 
0.000999 
0.001045 
0.001092 
0.001142 
0.001193 
0.001245 
0.001300 
0.001356 
0.001415 
0.001475 
0.001537 
0.001601 
0.001667 
0.001736 
0.001806 
0.001878 
0.001953 
0.002029 
0.002108 
0.002189 
0.002272 
0.002358 
0.002445 
0.002535 
0.002627 
0.002722 
0.002818 
0.002917 
0.003019 
0.003122 
0.003228 
0.003336 
0.003447 
0.003559 
0.003674 
0.003791 
0.003911 
0.004032 
0.004156 
0.004282 
0.004410 
0.004541 
0.004673 
0.004807 
0.004943 
0.005082 
0.005222 
0.005364 
0.005508 
0.005653 
0.005800 
0.005949 
0.006099 
0.006251 
0.006405 
0.006559 
0.006715 
0.006872 
0.007031 
0.007190 
0.007350 
0.007511 
0.007673 
0.007836 
0.007999 
0.008163 
0.008327 
0.008492 
0.008656 
0.008821 
0.008986 
0.009150 
0.009315 
0.009479 
0.009643 
0.009806 
0.009969 
0.010130 
0.010291 
0.010451 
0.010610 
0.010768 
0.010925 
0.011080 
0.011233 
0.011385 
0.011535 
0.011683 
0.011830 
0.011974 
0.012116 
0.012256 
0.012393 
0.012528 
0.012660 
0.012790 
0.012917 
0.013041 
0.013162 
0.013280 
0.013394 
0.013506 
0.013614 
0.013718 
0.013819 
0.013917 
0.014011 
0.014101 
0.014187 
0.014270 
0.014348 
0.014423 
0.014493 
0.014559 
0.014621 
0.014679 
0.014733 
0.014782 
0.014827 
0.014868 
0.014904 
0.014936 
0.014963 
0.014985 
0.015004 
0.015017 
0.015026 
0.015031 
0.000000 
0.000000 
0.000000 
0.000000 
0.000000 
0.000000 
0.000000 
0.000000 
0.000000 
0.000000 
0.000000 
0.000000 
0.000000 
0.000000 
0.000000 
0.000000 
0.000000 
0.000000 
0.000000 
0.000000 
0.000000 
0.000000 
0.000000 
0.000000 
0.000000 
0.000000 