# vtk DataFile Version 3.0
results.vtk
ASCII
DATASET RECTILINEAR_GRID
DIMENSIONS 301 301 1
X_COORDINATES 301 double
0.000000 0.003333 0.006667 0.010000 0.013333 0.016667 0.020000 0.023333 0.026667 0.030000 0.033333 0.036667 0.040000 0.043333 0.046667 0.050000 0.053333 0.056667 0.060000 0.063333 0.066667 0.070000 0.073333 0.076667 0.080000 0.083333 0.086667 0.090000 0.093333 0.096667 0.100000 0.103333 0.106667 0.110000 0.113333 0.116667 0.120000 0.123333 0.126667 0.130000 0.133333 0.136667 0.140000 0.143333 0.146667 0.150000 0.153333 0.156667 0.160000 0.163333 0.166667 0.170000 0.173333 0.176667 0.180000 0.183333 0.186667 0.190000 0.193333 0.196667 0.200000 0.203333 0.206667 0.210000 0.213333 0.216667 0.220000 0.223333 0.226667 0.230000 0.233333 0.236667 0.240000 0.243333 0.246667 0.250000 0.253333 0.256667 0.260000 0.263333 0.266667 0.270000 0.273333 0.276667 0.280000 0.283333 0.286667 0.290000 0.293333 0.296667 0.300000 0.303333 0.306667 0.310000 0.313333 0.316667 0.320000 0.323333 0.326667 0.330000 0.333333 0.336667 0.340000 0.343333 0.346667 0.350000 0.353333 0.356667 0.360000 0.363333 0.366667 0.370000 0.373333 0.376667 0.380000 0.383333 0.386667 0.390000 0.393333 0.396667 0.400000 0.403333 0.406667 0.410000 0.413333 0.416667 0.420000 0.423333 0.426667 0.430000 0.433333 0.436667 0.440000 0.443333 0.446667 0.450000 0.453333 0.456667 0.460000 0.463333 0.466667 0.470000 0.473333 0.476667 0.480000 0.483333 0.486667 0.490000 0.493333 0.496667 0.500000 0.503333 0.506667 0.510000 0.513333 0.516667 0.520000 0.523333 0.526667 0.530000 0.533333 0.536667 0.540000 0.543333 0.546667 0.550000 0.553333 0.556667 0.560000 0.563333 0.566667 0.570000 0.573333 0.576667 0.580000 0.583333 0.586667 0.590000 0.593333 0.596667 0.600000 0.603333 0.606667 0.610000 0.613333 0.616667 0.620000 0.623333 0.626667 0.630000 0.633333 0.636667 0.640000 0.643333 0.646667 0.650000 0.653333 0.656667 0.660000 0.663333 0.666667 0.670000 0.673333 0.676667 0.680000 0.683333 0.686667 0.690000 0.693333 0.696667 0.700000 0.703333 0.706667 0.710000 0.713333 0.716667 0.720000 0.723333 0.726667 0.730000 0.733333 0.736667 0.740000 0.743333 0.746667 0.750000 0.753333 0.756667 0.760000 0.763333 0.766667 0.770000 0.773333 0.776667 0.780000 0.783333 0.786667 0.790000 0.793333 0.796667 0.800000 0.803333 0.806667 0.810000 0.813333 0.816667 0.820000 0.823333 0.826667 0.830000 0.833333 0.836667 0.840000 0.843333 0.846667 0.850000 0.853333 0.856667 0.860000 0.863333 0.866667 0.870000 0.873333 0.876667 0.880000 0.883333 0.886667 0.890000 0.893333 0.896667 0.900000 0.903333 0.906667 0.910000 0.913333 0.916667 0.920000 0.923333 0.926667 0.930000 0.933333 0.936667 0.940000 0.943333 0.946667 0.950000 0.953333 0.956667 0.960000 0.963333 0.966667 0.970000 0.973333 0.976667 0.980000 0.983333 0.986667 0.990000 0.993333 0.996667 1.000000 
Y_COORDINATES 301 double
0.000000 0.003333 0.006667 0.010000 0.013333 0.016667 0.020000 0.023333 0.026667 0.030000 0.033333 0.036667 0.040000 0.043333 0.046667 0.050000 0.053333 0.056667 0.060000 0.063333 0.066667 0.070000 0.073333 0.076667 0.080000 0.083333 0.086667 0.090000 0.093333 0.096667 0.100000 0.103333 0.106667 0.110000 0.113333 0.116667 0.120000 0.123333 0.126667 0.130000 0.133333 0.136667 0.140000 0.143333 0.146667 0.150000 0.153333 0.156667 0.160000 0.163333 0.166667 0.170000 0.173333 0.176667 0.180000 0.183333 0.186667 0.190000 0.193333 0.196667 0.200000 0.203333 0.206667 0.210000 0.213333 0.216667 0.220000 0.223333 0.226667 0.230000 0.233333 0.236667 0.240000 0.243333 0.246667 0.250000 0.253333 0.256667 0.260000 0.263333 0.266667 0.270000 0.273333 0.276667 0.280000 0.283333 0.286667 0.290000 0.293333 0.296667 0.300000 0.303333 0.306667 0.310000 0.313333 0.316667 0.320000 0.323333 0.326667 0.330000 0.333333 0.336667 0.340000 0.343333 0.346667 0.350000 0.353333 0.356667 0.360000 0.363333 0.366667 0.370000 0.373333 0.376667 0.380000 0.383333 0.386667 0.390000 0.393333 0.396667 0.400000 0.403333 0.406667 0.410000 0.413333 0.416667 0.420000 0.423333 0.426667 0.430000 0.433333 0.436667 0.440000 0.443333 0.446667 0.450000 0.453333 0.456667 0.460000 0.463333 0.466667 0.470000 0.473333 0.476667 0.480000 0.483333 0.486667 0.490000 0.493333 0.496667 0.500000 0.503333 0.506667 0.510000 0.513333 0.516667 0.520000 0.523333 0.526667 0.530000 0.533333 0.536667 0.540000 0.543333 0.546667 0.550000 0.553333 0.556667 0.560000 0.563333 0.566667 0.570000 0.573333 0.576667 0.580000 0.583333 0.586667 0.590000 0.593333 0.596667 0.600000 0.603333 0.606667 0.610000 0.613333 0.616667 0.620000 0.623333 0.626667 0.630000 0.633333 0.636667 0.640000 0.643333 0.646667 0.650000 0.653333 0.656667 0.660000 0.663333 0.666667 0.670000 0.673333 0.676667 0.680000 0.683333 0.686667 0.690000 0.693333 0.696667 0.700000 0.703333 0.706667 0.710000 0.713333 0.716667 0.720000 0.723333 0.726667 0.730000 0.733333 0.736667 0.740000 0.743333 0.746667 0.750000 0.753333 0.756667 0.760000 0.763333 0.766667 0.770000 0.773333 0.776667 0.780000 0.783333 0.786667 0.790000 0.793333 0.796667 0.800000 0.803333 0.806667 0.810000 0.813333 0.816667 0.820000 0.823333 0.826667 0.830000 0.833333 0.836667 0.840000 0.843333 0.846667 0.850000 0.853333 0.856667 0.860000 0.863333 0.866667 0.870000 0.873333 0.876667 0.880000 0.883333 0.886667 0.890000 0.893333 0.896667 0.900000 0.903333 0.906667 0.910000 0.913333 0.916667 0.920000 0.923333 0.926667 0.930000 0.933333 0.936667 0.940000 0.943333 0.946667 0.950000 0.953333 0.956667 0.960000 0.963333 0.966667 0.970000 0.973333 0.976667 0.980000 0.983333 0.986667 0.990000 0.993333 0.996667 1.000000 
Z_COORDINATES 1 double
0
POINT_DATA 90601 
FIELD FieldData 1 
Concentração 1 90601 double 
0.000000 
0.000000 
0.000000 
0.000000 
0.000000 
0.000000 
0.000000 
0.000000 
0.000000 
0.000000 
0.000000 
0.000000 
0.000000 
0.000000 
0.000000 
0.000000 
0.000000 
0.000000 
0.000000 
0.000000 
0.000000 
0.000000 
0.000000 
0.000000 
0.000000 
0.000000 
0.000000 
0.000000 
0.000000 
0.000000 
0.000000 
0.000000 
0.000000 
0.000000 
0.000000 
0.000000 
0.000000 
0.000000 
0.000000 
0.000000 
0.000000 
0.000000 
0.000000 
0.000000 
0.000000 
0.000000 
0.000000 
0.000000 
0.000000 
0.000000 
0.000000 
0.000000 
0.000000 
0.000000 
0.000000 
0.000000 
0.000000 
0.000000 
0.000000 
0.000000 
0.000000 
0.000000 
0.000000 
0.000000 
0.000000 
0.000000 
0.000000 
0.000000 
0.000000 
0.000000 
0.000000 
0.000000 
0.000000 
0.000000 
0.000000 
0.000000 
0.000000 
0.000000 
0.000000 
0.000000 
0.000000 
0.000000 
0.000000 
0.000000 
0.000000 
0.000000 
0.000000 
0.000000 
0.000000 
0.000000 
0.000000 
0.000000 
0.000000 
0.000000 
0.000000 
0.000000 
0.000000 
0.000000 
0.000000 
0.000000 
0.000000 
0.000000 
0.000000 
0.000000 
0.000000 
0.000000 
0.000000 
0.000000 
0.000000 
0.000000 
0.000000 
0.000000 
0.000000 
0.000000 
0.000000 
0.000000 
0.000000 
0.000000 
0.000000 
0.000000 
0.000000 
0.000000 
0.000000 
0.000000 
0.000000 
0.000001 
0.000001 
0.000001 
0.000001 
0.000001 
0.000001 
0.000001 
0.000001 
0.000001 
0.000001 
0.000001 
0.000001 
0.000001 
0.000001 
0.000001 
0.000001 
0.000002 
0.000002 
0.000002 
0.000002 
0.000002 
0.000002 
0.000002 
0.000002 
0.000002 
0.000003 
0.000003 
0.000003 
0.000003 
0.000003 
0.000004 
0.000004 
0.000004 
0.000004 
0.000004 
0.000005 
0.000005 
0.000005 
0.000005 
0.000006 
0.000006 
0.000006 
0.000007 
0.000007 
0.000008 
0.000008 
0.000008 
0.000009 
0.000009 
0.000010 
0.000010 
0.000011 
0.000011 
0.000012 
0.000012 
0.000013 
0.000014 
0.000014 
0.000015 
0.000016 
0.000016 
0.000017 
0.000018 
0.000019 
0.000019 
0.000020 
0.000021 
0.000022 
0.000023 
0.000024 
0.000025 
0.000026 
0.000027 
0.000028 
0.000029 
0.000030 
0.000032 
0.000033 
0.000034 
0.000036 
0.000037 
0.000038 
0.000040 
0.000041 
0.000043 
0.000044 
0.000046 
0.000047 
0.000049 
0.000050 
0.000052 
0.000054 
0.000056 
0.000057 
0.000059 
0.000061 
0.000063 
0.000065 
0.000067 
0.000069 
0.000071 
0.000073 
0.000075 
0.000077 
0.000079 
0.000082 
0.000084 
0.000086 
0.000088 
0.000091 
0.000093 
0.000095 
0.000098 
0.000100 
0.000102 
0.000105 
0.000107 
0.000109 
0.000112 
0.000114 
0.000117 
0.000119 
0.000122 
0.000124 
0.000127 
0.000129 
0.000132 
0.000134 
0.000136 
0.000139 
0.000141 
0.000144 
0.000146 
0.000148 
0.000151 
0.000153 
0.000156 
0.000158 
0.000160 
0.000162 
0.000165 
0.000167 
0.000169 
0.000171 
0.000173 
0.000175 
0.000177 
0.000179 
0.000181 
0.000183 
0.000184 
0.000186 
0.000188 
0.000189 
0.000191 
0.000193 
0.000194 
0.000195 
0.000197 
0.000198 
0.000199 
0.000200 
0.000201 
0.000202 
0.000203 
0.000204 
0.000205 
0.000205 
0.000206 
0.000207 
0.000207 
0.000207 
0.000208 
0.000208 
0.000208 
0.000208 
0.000000 
0.000000 
0.000000 
0.000000 
0.000000 
0.000000 
0.000000 
0.000000 
0.000000 
0.000000 
0.000000 
0.000000 
0.000000 
0.000000 
0.000000 
0.000000 
0.000000 
0.000000 
0.000000 
0.000000 
0.000000 
0.000000 
0.000000 
0.000000 
0.000000 
0.000000 
0.000000 
0.000000 
0.000000 
0.000000 
0.000000 
0.000000 
0.000000 
0.000000 
0.000000 
0.000000 
0.000000 
0.000000 
0.000000 
0.000000 
0.000000 
0.000000 
0.000000 
0.000000 
0.000000 
0.000000 
0.000000 
0.000000 
0.000000 
0.000000 
0.000000 
0.000000 
0.000000 
0.000000 
0.000000 
0.000000 
0.000000 
0.000000 
0.000000 
0.000000 
0.000000 
0.000000 
0.000000 
0.000000 
0.000000 
0.000000 
0.000000 
0.000000 
0.000000 
0.000000 
0.000000 
0.000000 
0.000000 
0.000000 
0.000000 
0.000000 
0.000000 
0.000000 
0.000000 
0.000000 
0.000000 
0.000000 
0.000000 
0.000000 
0.000000 
0.000000 
0.000000 
0.000000 
0.000000 
0.000000 
0.000000 
0.000000 
0.000000 
0.000000 
0.000000 
0.000000 
0.000000 
0.000000 
0.000000 
0.000000 
0.000000 
0.000000 
0.000000 
0.000000 
0.000000 
0.000000 
0.000000 
0.000000 
0.000000 
0.000000 
0.000000 
0.000000 
0.000000 
0.000000 
0.000000 
0.000001 
0.000001 
0.000001 
0.000001 
0.000001 
0.000001 
0.000001 
0.000001 
0.000001 
0.000001 
0.000001 
0.000001 
0.000001 
0.000001 
0.000001 
0.000001 
0.000002 
0.000002 
0.000002 
0.000002 
0.000002 
0.000002 
0.000002 
0.000003 
0.000003 
0.000003 
0.000003 
0.000003 
0.000003 
0.000004 
0.000004 
0.000004 
0.000004 
0.000005 
0.000005 
0.000005 
0.000006 
0.000006 
0.000006 
0.000007 
0.000007 
0.000007 
0.000008 
0.000008 
0.000009 
0.000009 
0.000010 
0.000010 
0.000011 
0.000012 
0.000012 
0.000013 
0.000014 
0.000014 
0.000015 
0.000016 
0.000017 
0.000018 
0.000019 
0.000019 
0.000020 
0.000022 
0.000023 
0.000024 
0.000025 
0.000026 
0.000027 
0.000029 
0.000030 
0.000031 
0.000033 
0.000034 
0.000036 
0.000037 
0.000039 
0.000041 
0.000043 
0.000044 
0.000046 
0.000048 
0.000050 
0.000052 
0.000055 
0.000057 
0.000059 
0.000061 
0.000064 
0.000066 
0.000069 
0.000071 
0.000074 
0.000077 
0.000080 
0.000083 
0.000086 
0.000089 
0.000092 
0.000095 
0.000098 
0.000102 
0.000105 
0.000108 
0.000112 
0.000116 
0.000119 
0.000123 
0.000127 
0.000131 
0.000135 
0.000139 
0.000143 
0.000147 
0.000151 
0.000156 
0.000160 
0.000164 
0.000169 
0.000173 
0.000178 
0.000182 
0.000187 
0.000192 
0.000196 
0.000201 
0.000206 
0.000211 
0.000215 
0.000220 
0.000225 
0.000230 
0.000235 
0.000240 
0.000245 
0.000250 
0.000255 
0.000260 
0.000265 
0.000270 
0.000275 
0.000279 
0.000284 
0.000289 
0.000294 
0.000299 
0.000304 
0.000308 
0.000313 
0.000318 
0.000322 
0.000327 
0.000331 
0.000335 
0.000340 
0.000344 
0.000348 
0.000352 
0.000356 
0.000360 
0.000364 
0.000367 
0.000371 
0.000375 
0.000378 
0.000381 
0.000384 
0.000387 
0.000390 
0.000393 
0.000396 
0.000398 
0.000401 
0.000403 
0.000405 
0.000407 
0.000409 
0.000410 
0.000412 
0.000413 
0.000415 
0.000416 
0.000417 
0.000417 
0.000418 
0.000418 
0.000419 
0.000419 
0.000000 
0.000000 
0.000000 
0.000000 
0.000000 
0.000000 
0.000000 
0.000000 
0.000000 
0.000000 
0.000000 
0.000000 
0.000000 
0.000000 
0.000000 
0.000000 
0.000000 
0.000000 
0.000000 
0.000000 
0.000000 
0.000000 
0.000000 
0.000000 
0.000000 
0.000000 
0.000000 
0.000000 
0.000000 
0.000000 
0.000000 
0.000000 
0.000000 
0.000000 
0.000000 
0.000000 
0.000000 
0.000000 
0.000000 
0.000000 
0.000000 
0.000000 
0.000000 
0.000000 
0.000000 
0.000000 
0.000000 
0.000000 
0.000000 
0.000000 
0.000000 
0.000000 
0.000000 
0.000000 
0.000000 
0.000000 
0.000000 
0.000000 
0.000000 
0.000000 
0.000000 
0.000000 
0.000000 
0.000000 
0.000000 
0.000000 
0.000000 
0.000000 
0.000000 
0.000000 
0.000000 
0.000000 
0.000000 
0.000000 
0.000000 
0.000000 
0.000000 
0.000000 
0.000000 
0.000000 
0.000000 
0.000000 
0.000000 
0.000000 
0.000000 
0.000000 
0.000000 
0.000000 
0.000000 
0.000000 
0.000000 
0.000000 
0.000000 
0.000000 
0.000000 
0.000000 
0.000000 
0.000000 
0.000000 
0.000000 
0.000000 
0.000000 
0.000000 
0.000000 
0.000000 
0.000000 
0.000000 
0.000000 
0.000000 
0.000001 
0.000001 
0.000001 
0.000001 
0.000001 
0.000001 
0.000001 
0.000001 
0.000001 
0.000001 
0.000001 
0.000001 
0.000001 
0.000001 
0.000001 
0.000001 
0.000002 
0.000002 
0.000002 
0.000002 
0.000002 
0.000002 
0.000002 
0.000003 
0.000003 
0.000003 
0.000003 
0.000003 
0.000004 
0.000004 
0.000004 
0.000004 
0.000005 
0.000005 
0.000005 
0.000006 
0.000006 
0.000006 
0.000007 
0.000007 
0.000008 
0.000008 
0.000009 
0.000009 
0.000010 
0.000010 
0.000011 
0.000011 
0.000012 
0.000013 
0.000013 
0.000014 
0.000015 
0.000016 
0.000017 
0.000018 
0.000019 
0.000020 
0.000021 
0.000022 
0.000023 
0.000024 
0.000025 
0.000027 
0.000028 
0.000030 
0.000031 
0.000033 
0.000034 
0.000036 
0.000038 
0.000039 
0.000041 
0.000043 
0.000045 
0.000047 
0.000050 
0.000052 
0.000054 
0.000057 
0.000059 
0.000062 
0.000065 
0.000067 
0.000070 
0.000073 
0.000076 
0.000079 
0.000083 
0.000086 
0.000089 
0.000093 
0.000097 
0.000100 
0.000104 
0.000108 
0.000112 
0.000117 
0.000121 
0.000125 
0.000130 
0.000134 
0.000139 
0.000144 
0.000149 
0.000154 
0.000159 
0.000164 
0.000170 
0.000175 
0.000181 
0.000187 
0.000192 
0.000198 
0.000204 
0.000210 
0.000217 
0.000223 
0.000229 
0.000236 
0.000242 
0.000249 
0.000256 
0.000262 
0.000269 
0.000276 
0.000283 
0.000290 
0.000297 
0.000305 
0.000312 
0.000319 
0.000326 
0.000334 
0.000341 
0.000349 
0.000356 
0.000364 
0.000371 
0.000379 
0.000386 
0.000394 
0.000401 
0.000408 
0.000416 
0.000423 
0.000431 
0.000438 
0.000445 
0.000453 
0.000460 
0.000467 
0.000474 
0.000481 
0.000488 
0.000495 
0.000501 
0.000508 
0.000515 
0.000521 
0.000527 
0.000533 
0.000539 
0.000545 
0.000551 
0.000557 
0.000562 
0.000567 
0.000572 
0.000577 
0.000582 
0.000587 
0.000591 
0.000595 
0.000599 
0.000603 
0.000607 
0.000610 
0.000613 
0.000616 
0.000619 
0.000622 
0.000624 
0.000626 
0.000628 
0.000630 
0.000631 
0.000632 
0.000633 
0.000634 
0.000634 
0.000634 
0.000000 
0.000000 
0.000000 
0.000000 
0.000000 
0.000000 
0.000000 
0.000000 
0.000000 
0.000000 
0.000000 
0.000000 
0.000000 
0.000000 
0.000000 
0.000000 
0.000000 
0.000000 
0.000000 
0.000000 
0.000000 
0.000000 
0.000000 
0.000000 
0.000000 
0.000000 
0.000000 
0.000000 
0.000000 
0.000000 
0.000000 
0.000000 
0.000000 
0.000000 
0.000000 
0.000000 
0.000000 
0.000000 
0.000000 
0.000000 
0.000000 
0.000000 
0.000000 
0.000000 
0.000000 
0.000000 
0.000000 
0.000000 
0.000000 
0.000000 
0.000000 
0.000000 
0.000000 
0.000000 
0.000000 
0.000000 
0.000000 
0.000000 
0.000000 
0.000000 
0.000000 
0.000000 
0.000000 
0.000000 
0.000000 
0.000000 
0.000000 
0.000000 
0.000000 
0.000000 
0.000000 
0.000000 
0.000000 
0.000000 
0.000000 
0.000000 
0.000000 
0.000000 
0.000000 
0.000000 
0.000000 
0.000000 
0.000000 
0.000000 
0.000000 
0.000000 
0.000000 
0.000000 
0.000000 
0.000000 
0.000000 
0.000000 
0.000000 
0.000000 
0.000000 
0.000000 
0.000000 
0.000000 
0.000000 
0.000000 
0.000000 
0.000000 
0.000000 
0.000000 
0.000000 
0.000000 
0.000001 
0.000001 
0.000001 
0.000001 
0.000001 
0.000001 
0.000001 
0.000001 
0.000001 
0.000001 
0.000001 
0.000001 
0.000001 
0.000001 
0.000002 
0.000002 
0.000002 
0.000002 
0.000002 
0.000002 
0.000002 
0.000002 
0.000003 
0.000003 
0.000003 
0.000003 
0.000004 
0.000004 
0.000004 
0.000004 
0.000005 
0.000005 
0.000005 
0.000006 
0.000006 
0.000006 
0.000007 
0.000007 
0.000008 
0.000008 
0.000009 
0.000009 
0.000010 
0.000010 
0.000011 
0.000012 
0.000012 
0.000013 
0.000014 
0.000015 
0.000015 
0.000016 
0.000017 
0.000018 
0.000019 
0.000020 
0.000021 
0.000023 
0.000024 
0.000025 
0.000027 
0.000028 
0.000030 
0.000031 
0.000033 
0.000034 
0.000036 
0.000038 
0.000040 
0.000042 
0.000044 
0.000046 
0.000049 
0.000051 
0.000053 
0.000056 
0.000059 
0.000061 
0.000064 
0.000067 
0.000070 
0.000073 
0.000077 
0.000080 
0.000084 
0.000087 
0.000091 
0.000095 
0.000099 
0.000103 
0.000107 
0.000112 
0.000116 
0.000121 
0.000126 
0.000131 
0.000136 
0.000141 
0.000147 
0.000152 
0.000158 
0.000164 
0.000170 
0.000176 
0.000182 
0.000188 
0.000195 
0.000201 
0.000208 
0.000215 
0.000222 
0.000230 
0.000237 
0.000245 
0.000252 
0.000260 
0.000268 
0.000276 
0.000285 
0.000293 
0.000301 
0.000310 
0.000319 
0.000328 
0.000337 
0.000346 
0.000355 
0.000364 
0.000373 
0.000383 
0.000393 
0.000402 
0.000412 
0.000422 
0.000431 
0.000441 
0.000451 
0.000461 
0.000471 
0.000481 
0.000492 
0.000502 
0.000512 
0.000522 
0.000532 
0.000542 
0.000552 
0.000562 
0.000572 
0.000582 
0.000592 
0.000602 
0.000612 
0.000622 
0.000631 
0.000641 
0.000650 
0.000660 
0.000669 
0.000678 
0.000687 
0.000696 
0.000704 
0.000713 
0.000721 
0.000729 
0.000737 
0.000745 
0.000752 
0.000760 
0.000767 
0.000774 
0.000780 
0.000787 
0.000793 
0.000799 
0.000805 
0.000810 
0.000815 
0.000820 
0.000825 
0.000829 
0.000833 
0.000837 
0.000840 
0.000843 
0.000846 
0.000849 
0.000851 
0.000853 
0.000854 
0.000856 
0.000857 
0.000857 
0.000857 
0.000000 
0.000000 
0.000000 
0.000000 
0.000000 
0.000000 
0.000000 
0.000000 
0.000000 
0.000000 
0.000000 
0.000000 
0.000000 
0.000000 
0.000000 
0.000000 
0.000000 
0.000000 
0.000000 
0.000000 
0.000000 
0.000000 
0.000000 
0.000000 
0.000000 
0.000000 
0.000000 
0.000000 
0.000000 
0.000000 
0.000000 
0.000000 
0.000000 
0.000000 
0.000000 
0.000000 
0.000000 
0.000000 
0.000000 
0.000000 
0.000000 
0.000000 
0.000000 
0.000000 
0.000000 
0.000000 
0.000000 
0.000000 
0.000000 
0.000000 
0.000000 
0.000000 
0.000000 
0.000000 
0.000000 
0.000000 
0.000000 
0.000000 
0.000000 
0.000000 
0.000000 
0.000000 
0.000000 
0.000000 
0.000000 
0.000000 
0.000000 
0.000000 
0.000000 
0.000000 
0.000000 
0.000000 
0.000000 
0.000000 
0.000000 
0.000000 
0.000000 
0.000000 
0.000000 
0.000000 
0.000000 
0.000000 
0.000000 
0.000000 
0.000000 
0.000000 
0.000000 
0.000000 
0.000000 
0.000000 
0.000000 
0.000000 
0.000000 
0.000000 
0.000000 
0.000000 
0.000000 
0.000000 
0.000000 
0.000000 
0.000000 
0.000000 
0.000001 
0.000001 
0.000001 
0.000001 
0.000001 
0.000001 
0.000001 
0.000001 
0.000001 
0.000001 
0.000001 
0.000001 
0.000001 
0.000001 
0.000001 
0.000002 
0.000002 
0.000002 
0.000002 
0.000002 
0.000002 
0.000002 
0.000003 
0.000003 
0.000003 
0.000003 
0.000003 
0.000004 
0.000004 
0.000004 
0.000004 
0.000005 
0.000005 
0.000005 
0.000006 
0.000006 
0.000007 
0.000007 
0.000008 
0.000008 
0.000009 
0.000009 
0.000010 
0.000010 
0.000011 
0.000012 
0.000012 
0.000013 
0.000014 
0.000015 
0.000016 
0.000017 
0.000018 
0.000019 
0.000020 
0.000021 
0.000022 
0.000023 
0.000025 
0.000026 
0.000027 
0.000029 
0.000030 
0.000032 
0.000034 
0.000036 
0.000038 
0.000040 
0.000042 
0.000044 
0.000046 
0.000049 
0.000051 
0.000054 
0.000056 
0.000059 
0.000062 
0.000065 
0.000068 
0.000071 
0.000075 
0.000078 
0.000082 
0.000086 
0.000090 
0.000094 
0.000098 
0.000102 
0.000107 
0.000111 
0.000116 
0.000121 
0.000126 
0.000131 
0.000137 
0.000142 
0.000148 
0.000154 
0.000160 
0.000167 
0.000173 
0.000180 
0.000187 
0.000194 
0.000201 
0.000208 
0.000216 
0.000224 
0.000232 
0.000240 
0.000248 
0.000257 
0.000265 
0.000274 
0.000283 
0.000292 
0.000302 
0.000312 
0.000321 
0.000331 
0.000341 
0.000352 
0.000362 
0.000373 
0.000384 
0.000395 
0.000406 
0.000417 
0.000428 
0.000440 
0.000452 
0.000463 
0.000475 
0.000487 
0.000500 
0.000512 
0.000524 
0.000537 
0.000549 
0.000562 
0.000574 
0.000587 
0.000600 
0.000613 
0.000626 
0.000638 
0.000651 
0.000664 
0.000677 
0.000690 
0.000703 
0.000715 
0.000728 
0.000741 
0.000754 
0.000766 
0.000779 
0.000791 
0.000803 
0.000815 
0.000827 
0.000839 
0.000851 
0.000862 
0.000874 
0.000885 
0.000896 
0.000907 
0.000917 
0.000927 
0.000938 
0.000947 
0.000957 
0.000966 
0.000975 
0.000984 
0.000993 
0.001001 
0.001009 
0.001016 
0.001023 
0.001030 
0.001037 
0.001043 
0.001049 
0.001054 
0.001059 
0.001064 
0.001068 
0.001072 
0.001076 
0.001079 
0.001082 
0.001084 
0.001086 
0.001088 
0.001089 
0.001090 
0.001091 
0.000000 
0.000000 
0.000000 
0.000000 
0.000000 
0.000000 
0.000000 
0.000000 
0.000000 
0.000000 
0.000000 
0.000000 
0.000000 
0.000000 
0.000000 
0.000000 
0.000000 
0.000000 
0.000000 
0.000000 
0.000000 
0.000000 
0.000000 
0.000000 
0.000000 
0.000000 
0.000000 
0.000000 
0.000000 
0.000000 
0.000000 
0.000000 
0.000000 
0.000000 
0.000000 
0.000000 
0.000000 
0.000000 
0.000000 
0.000000 
0.000000 
0.000000 
0.000000 
0.000000 
0.000000 
0.000000 
0.000000 
0.000000 
0.000000 
0.000000 
0.000000 
0.000000 
0.000000 
0.000000 
0.000000 
0.000000 
0.000000 
0.000000 
0.000000 
0.000000 
0.000000 
0.000000 
0.000000 
0.000000 
0.000000 
0.000000 
0.000000 
0.000000 
0.000000 
0.000000 
0.000000 
0.000000 
0.000000 
0.000000 
0.000000 
0.000000 
0.000000 
0.000000 
0.000000 
0.000000 
0.000000 
0.000000 
0.000000 
0.000000 
0.000000 
0.000000 
0.000000 
0.000000 
0.000000 
0.000000 
0.000000 
0.000000 
0.000000 
0.000000 
0.000000 
0.000000 
0.000000 
0.000000 
0.000000 
0.000000 
0.000001 
0.000001 
0.000001 
0.000001 
0.000001 
0.000001 
0.000001 
0.000001 
0.000001 
0.000001 
0.000001 
0.000001 
0.000001 
0.000001 
0.000002 
0.000002 
0.000002 
0.000002 
0.000002 
0.000002 
0.000002 
0.000003 
0.000003 
0.000003 
0.000003 
0.000003 
0.000004 
0.000004 
0.000004 
0.000004 
0.000005 
0.000005 
0.000005 
0.000006 
0.000006 
0.000007 
0.000007 
0.000008 
0.000008 
0.000009 
0.000009 
0.000010 
0.000010 
0.000011 
0.000012 
0.000013 
0.000013 
0.000014 
0.000015 
0.000016 
0.000017 
0.000018 
0.000019 
0.000020 
0.000022 
0.000023 
0.000024 
0.000026 
0.000027 
0.000029 
0.000030 
0.000032 
0.000034 
0.000036 
0.000037 
0.000040 
0.000042 
0.000044 
0.000046 
0.000049 
0.000051 
0.000054 
0.000057 
0.000060 
0.000063 
0.000066 
0.000069 
0.000072 
0.000076 
0.000080 
0.000084 
0.000088 
0.000092 
0.000096 
0.000101 
0.000105 
0.000110 
0.000115 
0.000120 
0.000125 
0.000131 
0.000137 
0.000143 
0.000149 
0.000155 
0.000161 
0.000168 
0.000175 
0.000182 
0.000189 
0.000197 
0.000205 
0.000213 
0.000221 
0.000229 
0.000238 
0.000247 
0.000256 
0.000265 
0.000274 
0.000284 
0.000294 
0.000304 
0.000315 
0.000326 
0.000336 
0.000348 
0.000359 
0.000370 
0.000382 
0.000394 
0.000407 
0.000419 
0.000432 
0.000444 
0.000457 
0.000471 
0.000484 
0.000498 
0.000512 
0.000526 
0.000540 
0.000554 
0.000568 
0.000583 
0.000598 
0.000613 
0.000628 
0.000643 
0.000658 
0.000673 
0.000689 
0.000704 
0.000720 
0.000736 
0.000751 
0.000767 
0.000783 
0.000799 
0.000814 
0.000830 
0.000846 
0.000862 
0.000877 
0.000893 
0.000908 
0.000924 
0.000939 
0.000954 
0.000970 
0.000985 
0.000999 
0.001014 
0.001029 
0.001043 
0.001057 
0.001071 
0.001085 
0.001098 
0.001111 
0.001124 
0.001137 
0.001149 
0.001161 
0.001173 
0.001184 
0.001195 
0.001206 
0.001216 
0.001226 
0.001236 
0.001245 
0.001254 
0.001262 
0.001270 
0.001278 
0.001285 
0.001292 
0.001298 
0.001304 
0.001309 
0.001314 
0.001318 
0.001322 
0.001326 
0.001329 
0.001331 
0.001333 
0.001335 
0.001336 
0.001336 
0.000000 
0.000000 
0.000000 
0.000000 
0.000000 
0.000000 
0.000000 
0.000000 
0.000000 
0.000000 
0.000000 
0.000000 
0.000000 
0.000000 
0.000000 
0.000000 
0.000000 
0.000000 
0.000000 
0.000000 
0.000000 
0.000000 
0.000000 
0.000000 
0.000000 
0.000000 
0.000000 
0.000000 
0.000000 
0.000000 
0.000000 
0.000000 
0.000000 
0.000000 
0.000000 
0.000000 
0.000000 
0.000000 
0.000000 
0.000000 
0.000000 
0.000000 
0.000000 
0.000000 
0.000000 
0.000000 
0.000000 
0.000000 
0.000000 
0.000000 
0.000000 
0.000000 
0.000000 
0.000000 
0.000000 
0.000000 
0.000000 
0.000000 
0.000000 
0.000000 
0.000000 
0.000000 
0.000000 
0.000000 
0.000000 
0.000000 
0.000000 
0.000000 
0.000000 
0.000000 
0.000000 
0.000000 
0.000000 
0.000000 
0.000000 
0.000000 
0.000000 
0.000000 
0.000000 
0.000000 
0.000000 
0.000000 
0.000000 
0.000000 
0.000000 
0.000000 
0.000000 
0.000000 
0.000000 
0.000000 
0.000000 
0.000000 
0.000000 
0.000000 
0.000000 
0.000000 
0.000000 
0.000000 
0.000001 
0.000001 
0.000001 
0.000001 
0.000001 
0.000001 
0.000001 
0.000001 
0.000001 
0.000001 
0.000001 
0.000001 
0.000001 
0.000001 
0.000002 
0.000002 
0.000002 
0.000002 
0.000002 
0.000002 
0.000002 
0.000003 
0.000003 
0.000003 
0.000003 
0.000004 
0.000004 
0.000004 
0.000004 
0.000005 
0.000005 
0.000005 
0.000006 
0.000006 
0.000007 
0.000007 
0.000008 
0.000008 
0.000009 
0.000009 
0.000010 
0.000010 
0.000011 
0.000012 
0.000013 
0.000013 
0.000014 
0.000015 
0.000016 
0.000017 
0.000018 
0.000019 
0.000020 
0.000022 
0.000023 
0.000024 
0.000026 
0.000027 
0.000029 
0.000031 
0.000032 
0.000034 
0.000036 
0.000038 
0.000040 
0.000043 
0.000045 
0.000047 
0.000050 
0.000053 
0.000055 
0.000058 
0.000061 
0.000065 
0.000068 
0.000071 
0.000075 
0.000079 
0.000083 
0.000087 
0.000091 
0.000096 
0.000100 
0.000105 
0.000110 
0.000115 
0.000120 
0.000126 
0.000132 
0.000138 
0.000144 
0.000150 
0.000157 
0.000164 
0.000171 
0.000178 
0.000186 
0.000193 
0.000201 
0.000210 
0.000218 
0.000227 
0.000236 
0.000245 
0.000255 
0.000264 
0.000274 
0.000285 
0.000295 
0.000306 
0.000317 
0.000329 
0.000340 
0.000352 
0.000365 
0.000377 
0.000390 
0.000403 
0.000416 
0.000430 
0.000444 
0.000458 
0.000472 
0.000487 
0.000502 
0.000517 
0.000532 
0.000548 
0.000564 
0.000580 
0.000596 
0.000612 
0.000629 
0.000646 
0.000663 
0.000680 
0.000698 
0.000716 
0.000733 
0.000751 
0.000769 
0.000788 
0.000806 
0.000824 
0.000843 
0.000862 
0.000880 
0.000899 
0.000918 
0.000937 
0.000955 
0.000974 
0.000993 
0.001012 
0.001031 
0.001049 
0.001068 
0.001087 
0.001105 
0.001123 
0.001142 
0.001160 
0.001178 
0.001195 
0.001213 
0.001230 
0.001247 
0.001264 
0.001281 
0.001297 
0.001313 
0.001329 
0.001344 
0.001359 
0.001374 
0.001388 
0.001402 
0.001416 
0.001429 
0.001442 
0.001454 
0.001466 
0.001478 
0.001489 
0.001499 
0.001509 
0.001519 
0.001528 
0.001536 
0.001544 
0.001552 
0.001559 
0.001565 
0.001571 
0.001576 
0.001581 
0.001585 
0.001589 
0.001591 
0.001594 
0.001596 
0.001597 
0.001597 
0.000000 
0.000000 
0.000000 
0.000000 
0.000000 
0.000000 
0.000000 
0.000000 
0.000000 
0.000000 
0.000000 
0.000000 
0.000000 
0.000000 
0.000000 
0.000000 
0.000000 
0.000000 
0.000000 
0.000000 
0.000000 
0.000000 
0.000000 
0.000000 
0.000000 
0.000000 
0.000000 
0.000000 
0.000000 
0.000000 
0.000000 
0.000000 
0.000000 
0.000000 
0.000000 
0.000000 
0.000000 
0.000000 
0.000000 
0.000000 
0.000000 
0.000000 
0.000000 
0.000000 
0.000000 
0.000000 
0.000000 
0.000000 
0.000000 
0.000000 
0.000000 
0.000000 
0.000000 
0.000000 
0.000000 
0.000000 
0.000000 
0.000000 
0.000000 
0.000000 
0.000000 
0.000000 
0.000000 
0.000000 
0.000000 
0.000000 
0.000000 
0.000000 
0.000000 
0.000000 
0.000000 
0.000000 
0.000000 
0.000000 
0.000000 
0.000000 
0.000000 
0.000000 
0.000000 
0.000000 
0.000000 
0.000000 
0.000000 
0.000000 
0.000000 
0.000000 
0.000000 
0.000000 
0.000000 
0.000000 
0.000000 
0.000000 
0.000000 
0.000000 
0.000000 
0.000000 
0.000001 
0.000001 
0.000001 
0.000001 
0.000001 
0.000001 
0.000001 
0.000001 
0.000001 
0.000001 
0.000001 
0.000001 
0.000001 
0.000002 
0.000002 
0.000002 
0.000002 
0.000002 
0.000002 
0.000002 
0.000003 
0.000003 
0.000003 
0.000003 
0.000003 
0.000004 
0.000004 
0.000004 
0.000004 
0.000005 
0.000005 
0.000006 
0.000006 
0.000006 
0.000007 
0.000007 
0.000008 
0.000008 
0.000009 
0.000009 
0.000010 
0.000011 
0.000011 
0.000012 
0.000013 
0.000014 
0.000015 
0.000016 
0.000017 
0.000018 
0.000019 
0.000020 
0.000021 
0.000023 
0.000024 
0.000026 
0.000027 
0.000029 
0.000030 
0.000032 
0.000034 
0.000036 
0.000038 
0.000040 
0.000043 
0.000045 
0.000048 
0.000050 
0.000053 
0.000056 
0.000059 
0.000062 
0.000065 
0.000069 
0.000072 
0.000076 
0.000080 
0.000084 
0.000088 
0.000093 
0.000098 
0.000102 
0.000107 
0.000113 
0.000118 
0.000124 
0.000130 
0.000136 
0.000142 
0.000149 
0.000155 
0.000162 
0.000170 
0.000177 
0.000185 
0.000193 
0.000201 
0.000210 
0.000219 
0.000228 
0.000237 
0.000247 
0.000257 
0.000267 
0.000278 
0.000289 
0.000300 
0.000311 
0.000323 
0.000335 
0.000348 
0.000361 
0.000374 
0.000387 
0.000401 
0.000415 
0.000429 
0.000444 
0.000459 
0.000474 
0.000490 
0.000506 
0.000522 
0.000539 
0.000556 
0.000573 
0.000590 
0.000608 
0.000626 
0.000645 
0.000663 
0.000682 
0.000701 
0.000721 
0.000740 
0.000760 
0.000780 
0.000801 
0.000821 
0.000842 
0.000863 
0.000884 
0.000905 
0.000927 
0.000948 
0.000970 
0.000991 
0.001013 
0.001035 
0.001057 
0.001079 
0.001101 
0.001124 
0.001146 
0.001168 
0.001190 
0.001212 
0.001234 
0.001256 
0.001278 
0.001299 
0.001321 
0.001342 
0.001363 
0.001384 
0.001405 
0.001426 
0.001446 
0.001466 
0.001486 
0.001505 
0.001524 
0.001543 
0.001562 
0.001580 
0.001598 
0.001615 
0.001632 
0.001648 
0.001664 
0.001680 
0.001695 
0.001709 
0.001723 
0.001737 
0.001749 
0.001762 
0.001774 
0.001785 
0.001795 
0.001805 
0.001815 
0.001823 
0.001832 
0.001839 
0.001846 
0.001852 
0.001857 
0.001862 
0.001866 
0.001870 
0.001873 
0.001875 
0.001876 
0.001877 
0.000000 
0.000000 
0.000000 
0.000000 
0.000000 
0.000000 
0.000000 
0.000000 
0.000000 
0.000000 
0.000000 
0.000000 
0.000000 
0.000000 
0.000000 
0.000000 
0.000000 
0.000000 
0.000000 
0.000000 
0.000000 
0.000000 
0.000000 
0.000000 
0.000000 
0.000000 