# vtk DataFile Version 3.0
results.vtk
ASCII
DATASET RECTILINEAR_GRID
DIMENSIONS 301 301 1
X_COORDINATES 301 double
0.000000 0.003333 0.006667 0.010000 0.013333 0.016667 0.020000 0.023333 0.026667 0.030000 0.033333 0.036667 0.040000 0.043333 0.046667 0.050000 0.053333 0.056667 0.060000 0.063333 0.066667 0.070000 0.073333 0.076667 0.080000 0.083333 0.086667 0.090000 0.093333 0.096667 0.100000 0.103333 0.106667 0.110000 0.113333 0.116667 0.120000 0.123333 0.126667 0.130000 0.133333 0.136667 0.140000 0.143333 0.146667 0.150000 0.153333 0.156667 0.160000 0.163333 0.166667 0.170000 0.173333 0.176667 0.180000 0.183333 0.186667 0.190000 0.193333 0.196667 0.200000 0.203333 0.206667 0.210000 0.213333 0.216667 0.220000 0.223333 0.226667 0.230000 0.233333 0.236667 0.240000 0.243333 0.246667 0.250000 0.253333 0.256667 0.260000 0.263333 0.266667 0.270000 0.273333 0.276667 0.280000 0.283333 0.286667 0.290000 0.293333 0.296667 0.300000 0.303333 0.306667 0.310000 0.313333 0.316667 0.320000 0.323333 0.326667 0.330000 0.333333 0.336667 0.340000 0.343333 0.346667 0.350000 0.353333 0.356667 0.360000 0.363333 0.366667 0.370000 0.373333 0.376667 0.380000 0.383333 0.386667 0.390000 0.393333 0.396667 0.400000 0.403333 0.406667 0.410000 0.413333 0.416667 0.420000 0.423333 0.426667 0.430000 0.433333 0.436667 0.440000 0.443333 0.446667 0.450000 0.453333 0.456667 0.460000 0.463333 0.466667 0.470000 0.473333 0.476667 0.480000 0.483333 0.486667 0.490000 0.493333 0.496667 0.500000 0.503333 0.506667 0.510000 0.513333 0.516667 0.520000 0.523333 0.526667 0.530000 0.533333 0.536667 0.540000 0.543333 0.546667 0.550000 0.553333 0.556667 0.560000 0.563333 0.566667 0.570000 0.573333 0.576667 0.580000 0.583333 0.586667 0.590000 0.593333 0.596667 0.600000 0.603333 0.606667 0.610000 0.613333 0.616667 0.620000 0.623333 0.626667 0.630000 0.633333 0.636667 0.640000 0.643333 0.646667 0.650000 0.653333 0.656667 0.660000 0.663333 0.666667 0.670000 0.673333 0.676667 0.680000 0.683333 0.686667 0.690000 0.693333 0.696667 0.700000 0.703333 0.706667 0.710000 0.713333 0.716667 0.720000 0.723333 0.726667 0.730000 0.733333 0.736667 0.740000 0.743333 0.746667 0.750000 0.753333 0.756667 0.760000 0.763333 0.766667 0.770000 0.773333 0.776667 0.780000 0.783333 0.786667 0.790000 0.793333 0.796667 0.800000 0.803333 0.806667 0.810000 0.813333 0.816667 0.820000 0.823333 0.826667 0.830000 0.833333 0.836667 0.840000 0.843333 0.846667 0.850000 0.853333 0.856667 0.860000 0.863333 0.866667 0.870000 0.873333 0.876667 0.880000 0.883333 0.886667 0.890000 0.893333 0.896667 0.900000 0.903333 0.906667 0.910000 0.913333 0.916667 0.920000 0.923333 0.926667 0.930000 0.933333 0.936667 0.940000 0.943333 0.946667 0.950000 0.953333 0.956667 0.960000 0.963333 0.966667 0.970000 0.973333 0.976667 0.980000 0.983333 0.986667 0.990000 0.993333 0.996667 1.000000 
Y_COORDINATES 301 double
0.000000 0.003333 0.006667 0.010000 0.013333 0.016667 0.020000 0.023333 0.026667 0.030000 0.033333 0.036667 0.040000 0.043333 0.046667 0.050000 0.053333 0.056667 0.060000 0.063333 0.066667 0.070000 0.073333 0.076667 0.080000 0.083333 0.086667 0.090000 0.093333 0.096667 0.100000 0.103333 0.106667 0.110000 0.113333 0.116667 0.120000 0.123333 0.126667 0.130000 0.133333 0.136667 0.140000 0.143333 0.146667 0.150000 0.153333 0.156667 0.160000 0.163333 0.166667 0.170000 0.173333 0.176667 0.180000 0.183333 0.186667 0.190000 0.193333 0.196667 0.200000 0.203333 0.206667 0.210000 0.213333 0.216667 0.220000 0.223333 0.226667 0.230000 0.233333 0.236667 0.240000 0.243333 0.246667 0.250000 0.253333 0.256667 0.260000 0.263333 0.266667 0.270000 0.273333 0.276667 0.280000 0.283333 0.286667 0.290000 0.293333 0.296667 0.300000 0.303333 0.306667 0.310000 0.313333 0.316667 0.320000 0.323333 0.326667 0.330000 0.333333 0.336667 0.340000 0.343333 0.346667 0.350000 0.353333 0.356667 0.360000 0.363333 0.366667 0.370000 0.373333 0.376667 0.380000 0.383333 0.386667 0.390000 0.393333 0.396667 0.400000 0.403333 0.406667 0.410000 0.413333 0.416667 0.420000 0.423333 0.426667 0.430000 0.433333 0.436667 0.440000 0.443333 0.446667 0.450000 0.453333 0.456667 0.460000 0.463333 0.466667 0.470000 0.473333 0.476667 0.480000 0.483333 0.486667 0.490000 0.493333 0.496667 0.500000 0.503333 0.506667 0.510000 0.513333 0.516667 0.520000 0.523333 0.526667 0.530000 0.533333 0.536667 0.540000 0.543333 0.546667 0.550000 0.553333 0.556667 0.560000 0.563333 0.566667 0.570000 0.573333 0.576667 0.580000 0.583333 0.586667 0.590000 0.593333 0.596667 0.600000 0.603333 0.606667 0.610000 0.613333 0.616667 0.620000 0.623333 0.626667 0.630000 0.633333 0.636667 0.640000 0.643333 0.646667 0.650000 0.653333 0.656667 0.660000 0.663333 0.666667 0.670000 0.673333 0.676667 0.680000 0.683333 0.686667 0.690000 0.693333 0.696667 0.700000 0.703333 0.706667 0.710000 0.713333 0.716667 0.720000 0.723333 0.726667 0.730000 0.733333 0.736667 0.740000 0.743333 0.746667 0.750000 0.753333 0.756667 0.760000 0.763333 0.766667 0.770000 0.773333 0.776667 0.780000 0.783333 0.786667 0.790000 0.793333 0.796667 0.800000 0.803333 0.806667 0.810000 0.813333 0.816667 0.820000 0.823333 0.826667 0.830000 0.833333 0.836667 0.840000 0.843333 0.846667 0.850000 0.853333 0.856667 0.860000 0.863333 0.866667 0.870000 0.873333 0.876667 0.880000 0.883333 0.886667 0.890000 0.893333 0.896667 0.900000 0.903333 0.906667 0.910000 0.913333 0.916667 0.920000 0.923333 0.926667 0.930000 0.933333 0.936667 0.940000 0.943333 0.946667 0.950000 0.953333 0.956667 0.960000 0.963333 0.966667 0.970000 0.973333 0.976667 0.980000 0.983333 0.986667 0.990000 0.993333 0.996667 1.000000 
Z_COORDINATES 1 double
0
POINT_DATA 90601 
FIELD FieldData 1 
Concentração 1 90601 double 
0.000000 
0.000000 
0.000000 
0.000000 
0.000000 
0.000000 
0.000000 
0.000000 
0.000000 
0.000000 
0.000000 
0.000000 
0.000000 
0.000000 
0.000000 
0.000000 
0.000000 
0.000000 
0.000000 
0.000000 
0.000000 
0.000000 
0.000000 
0.000000 
0.000000 
0.000000 
0.000000 
0.000000 
0.000000 
0.000000 
0.000000 
0.000000 
0.000000 
0.000000 
0.000000 
0.000000 
0.000000 
0.000000 
0.000000 
0.000000 
0.000000 
0.000000 
0.000000 
0.000000 
0.000000 
0.000000 
0.000000 
0.000000 
0.000000 
0.000000 
0.000000 
0.000000 
0.000000 
0.000000 
0.000000 
0.000000 
0.000000 
0.000000 
0.000000 
0.000000 
0.000000 
0.000000 
0.000000 
0.000000 
0.000000 
0.000000 
0.000000 
0.000000 
0.000000 
0.000000 
0.000000 
0.000000 
0.000000 
0.000000 
0.000000 
0.000000 
0.000000 
0.000000 
0.000000 
0.000000 
0.000000 
0.000000 
0.000000 
0.000000 
0.000000 
0.000000 
0.000000 
0.000000 
0.000000 
0.000000 
0.000000 
0.000000 
0.000000 
0.000000 
0.000000 
0.000000 
0.000000 
0.000000 
0.000000 
0.000000 
0.000000 
0.000000 
0.000000 
0.000000 
0.000000 
0.000000 
0.000000 
0.000000 
0.000000 
0.000000 
0.000000 
0.000000 
0.000000 
0.000000 
0.000001 
0.000001 
0.000001 
0.000001 
0.000001 
0.000001 
0.000001 
0.000001 
0.000001 
0.000001 
0.000001 
0.000001 
0.000001 
0.000001 
0.000001 
0.000001 
0.000002 
0.000002 
0.000002 
0.000002 
0.000002 
0.000002 
0.000002 
0.000002 
0.000003 
0.000003 
0.000003 
0.000003 
0.000003 
0.000004 
0.000004 
0.000004 
0.000004 
0.000005 
0.000005 
0.000005 
0.000005 
0.000006 
0.000006 
0.000006 
0.000007 
0.000007 
0.000008 
0.000008 
0.000008 
0.000009 
0.000009 
0.000010 
0.000010 
0.000011 
0.000012 
0.000012 
0.000013 
0.000014 
0.000014 
0.000015 
0.000016 
0.000017 
0.000017 
0.000018 
0.000019 
0.000020 
0.000021 
0.000022 
0.000023 
0.000024 
0.000026 
0.000027 
0.000028 
0.000029 
0.000031 
0.000032 
0.000033 
0.000035 
0.000036 
0.000038 
0.000040 
0.000041 
0.000043 
0.000045 
0.000047 
0.000049 
0.000051 
0.000053 
0.000055 
0.000057 
0.000059 
0.000061 
0.000064 
0.000066 
0.000069 
0.000071 
0.000074 
0.000076 
0.000079 
0.000082 
0.000085 
0.000087 
0.000090 
0.000093 
0.000097 
0.000100 
0.000103 
0.000106 
0.000110 
0.000113 
0.000116 
0.000120 
0.000123 
0.000127 
0.000131 
0.000135 
0.000138 
0.000142 
0.000146 
0.000150 
0.000154 
0.000158 
0.000162 
0.000166 
0.000170 
0.000175 
0.000179 
0.000183 
0.000187 
0.000192 
0.000196 
0.000200 
0.000205 
0.000209 
0.000214 
0.000218 
0.000222 
0.000227 
0.000231 
0.000236 
0.000240 
0.000245 
0.000249 
0.000253 
0.000258 
0.000262 
0.000266 
0.000271 
0.000275 
0.000279 
0.000283 
0.000288 
0.000292 
0.000296 
0.000300 
0.000304 
0.000307 
0.000311 
0.000315 
0.000319 
0.000322 
0.000326 
0.000329 
0.000333 
0.000336 
0.000339 
0.000342 
0.000345 
0.000348 
0.000351 
0.000353 
0.000356 
0.000358 
0.000361 
0.000363 
0.000365 
0.000367 
0.000369 
0.000371 
0.000372 
0.000374 
0.000375 
0.000376 
0.000377 
0.000378 
0.000379 
0.000380 
0.000380 
0.000381 
0.000381 
0.000381 
0.000000 
0.000000 
0.000000 
0.000000 
0.000000 
0.000000 
0.000000 
0.000000 
0.000000 
0.000000 
0.000000 
0.000000 
0.000000 
0.000000 
0.000000 
0.000000 
0.000000 
0.000000 
0.000000 
0.000000 
0.000000 
0.000000 
0.000000 
0.000000 
0.000000 
0.000000 
0.000000 
0.000000 
0.000000 
0.000000 
0.000000 
0.000000 
0.000000 
0.000000 
0.000000 
0.000000 
0.000000 
0.000000 
0.000000 
0.000000 
0.000000 
0.000000 
0.000000 
0.000000 
0.000000 
0.000000 
0.000000 
0.000000 
0.000000 
0.000000 
0.000000 
0.000000 
0.000000 
0.000000 
0.000000 
0.000000 
0.000000 
0.000000 
0.000000 
0.000000 
0.000000 
0.000000 
0.000000 
0.000000 
0.000000 
0.000000 
0.000000 
0.000000 
0.000000 
0.000000 
0.000000 
0.000000 
0.000000 
0.000000 
0.000000 
0.000000 
0.000000 
0.000000 
0.000000 
0.000000 
0.000000 
0.000000 
0.000000 
0.000000 
0.000000 
0.000000 
0.000000 
0.000000 
0.000000 
0.000000 
0.000000 
0.000000 
0.000000 
0.000000 
0.000000 
0.000000 
0.000000 
0.000000 
0.000000 
0.000000 
0.000000 
0.000000 
0.000000 
0.000000 
0.000000 
0.000001 
0.000001 
0.000001 
0.000001 
0.000001 
0.000001 
0.000001 
0.000001 
0.000001 
0.000001 
0.000001 
0.000001 
0.000001 
0.000001 
0.000001 
0.000002 
0.000002 
0.000002 
0.000002 
0.000002 
0.000002 
0.000002 
0.000003 
0.000003 
0.000003 
0.000003 
0.000003 
0.000004 
0.000004 
0.000004 
0.000004 
0.000005 
0.000005 
0.000005 
0.000006 
0.000006 
0.000006 
0.000007 
0.000007 
0.000008 
0.000008 
0.000009 
0.000009 
0.000010 
0.000010 
0.000011 
0.000011 
0.000012 
0.000013 
0.000014 
0.000014 
0.000015 
0.000016 
0.000017 
0.000018 
0.000019 
0.000020 
0.000021 
0.000022 
0.000023 
0.000025 
0.000026 
0.000027 
0.000029 
0.000030 
0.000032 
0.000033 
0.000035 
0.000037 
0.000039 
0.000041 
0.000043 
0.000045 
0.000047 
0.000049 
0.000051 
0.000054 
0.000056 
0.000059 
0.000062 
0.000064 
0.000067 
0.000070 
0.000073 
0.000077 
0.000080 
0.000083 
0.000087 
0.000090 
0.000094 
0.000098 
0.000102 
0.000106 
0.000110 
0.000114 
0.000119 
0.000123 
0.000128 
0.000133 
0.000138 
0.000143 
0.000148 
0.000153 
0.000159 
0.000164 
0.000170 
0.000176 
0.000182 
0.000188 
0.000194 
0.000201 
0.000207 
0.000214 
0.000220 
0.000227 
0.000234 
0.000241 
0.000248 
0.000256 
0.000263 
0.000271 
0.000278 
0.000286 
0.000294 
0.000302 
0.000310 
0.000318 
0.000326 
0.000334 
0.000343 
0.000351 
0.000360 
0.000368 
0.000377 
0.000385 
0.000394 
0.000403 
0.000412 
0.000421 
0.000429 
0.000438 
0.000447 
0.000456 
0.000465 
0.000474 
0.000483 
0.000492 
0.000501 
0.000510 
0.000518 
0.000527 
0.000536 
0.000544 
0.000553 
0.000561 
0.000570 
0.000578 
0.000586 
0.000595 
0.000603 
0.000611 
0.000618 
0.000626 
0.000633 
0.000641 
0.000648 
0.000655 
0.000662 
0.000669 
0.000675 
0.000682 
0.000688 
0.000694 
0.000700 
0.000705 
0.000710 
0.000716 
0.000721 
0.000725 
0.000730 
0.000734 
0.000738 
0.000742 
0.000745 
0.000748 
0.000751 
0.000754 
0.000756 
0.000759 
0.000760 
0.000762 
0.000763 
0.000765 
0.000765 
0.000766 
0.000766 
0.000000 
0.000000 
0.000000 
0.000000 
0.000000 
0.000000 
0.000000 
0.000000 
0.000000 
0.000000 
0.000000 
0.000000 
0.000000 
0.000000 
0.000000 
0.000000 
0.000000 
0.000000 
0.000000 
0.000000 
0.000000 
0.000000 
0.000000 
0.000000 
0.000000 
0.000000 
0.000000 
0.000000 
0.000000 
0.000000 
0.000000 
0.000000 
0.000000 
0.000000 
0.000000 
0.000000 
0.000000 
0.000000 
0.000000 
0.000000 
0.000000 
0.000000 
0.000000 
0.000000 
0.000000 
0.000000 
0.000000 
0.000000 
0.000000 
0.000000 
0.000000 
0.000000 
0.000000 
0.000000 
0.000000 
0.000000 
0.000000 
0.000000 
0.000000 
0.000000 
0.000000 
0.000000 
0.000000 
0.000000 
0.000000 
0.000000 
0.000000 
0.000000 
0.000000 
0.000000 
0.000000 
0.000000 
0.000000 
0.000000 
0.000000 
0.000000 
0.000000 
0.000000 
0.000000 
0.000000 
0.000000 
0.000000 
0.000000 
0.000000 
0.000000 
0.000000 
0.000000 
0.000000 
0.000000 
0.000000 
0.000000 
0.000000 
0.000000 
0.000000 
0.000000 
0.000000 
0.000000 
0.000000 
0.000000 
0.000001 
0.000001 
0.000001 
0.000001 
0.000001 
0.000001 
0.000001 
0.000001 
0.000001 
0.000001 
0.000001 
0.000001 
0.000001 
0.000001 
0.000001 
0.000002 
0.000002 
0.000002 
0.000002 
0.000002 
0.000002 
0.000002 
0.000003 
0.000003 
0.000003 
0.000003 
0.000003 
0.000004 
0.000004 
0.000004 
0.000004 
0.000005 
0.000005 
0.000005 
0.000006 
0.000006 
0.000007 
0.000007 
0.000007 
0.000008 
0.000008 
0.000009 
0.000010 
0.000010 
0.000011 
0.000011 
0.000012 
0.000013 
0.000014 
0.000015 
0.000015 
0.000016 
0.000017 
0.000018 
0.000019 
0.000021 
0.000022 
0.000023 
0.000024 
0.000026 
0.000027 
0.000029 
0.000030 
0.000032 
0.000034 
0.000036 
0.000037 
0.000039 
0.000042 
0.000044 
0.000046 
0.000048 
0.000051 
0.000053 
0.000056 
0.000059 
0.000062 
0.000065 
0.000068 
0.000071 
0.000074 
0.000078 
0.000082 
0.000085 
0.000089 
0.000093 
0.000098 
0.000102 
0.000106 
0.000111 
0.000116 
0.000121 
0.000126 
0.000131 
0.000137 
0.000143 
0.000148 
0.000154 
0.000161 
0.000167 
0.000173 
0.000180 
0.000187 
0.000194 
0.000201 
0.000209 
0.000217 
0.000224 
0.000232 
0.000241 
0.000249 
0.000258 
0.000267 
0.000276 
0.000285 
0.000294 
0.000304 
0.000314 
0.000324 
0.000334 
0.000344 
0.000355 
0.000365 
0.000376 
0.000387 
0.000398 
0.000410 
0.000421 
0.000433 
0.000445 
0.000457 
0.000469 
0.000481 
0.000494 
0.000506 
0.000519 
0.000532 
0.000544 
0.000557 
0.000570 
0.000584 
0.000597 
0.000610 
0.000623 
0.000637 
0.000650 
0.000664 
0.000677 
0.000691 
0.000704 
0.000718 
0.000731 
0.000745 
0.000758 
0.000771 
0.000785 
0.000798 
0.000811 
0.000824 
0.000837 
0.000850 
0.000863 
0.000875 
0.000888 
0.000900 
0.000912 
0.000924 
0.000936 
0.000947 
0.000959 
0.000970 
0.000981 
0.000992 
0.001002 
0.001012 
0.001022 
0.001032 
0.001041 
0.001050 
0.001059 
0.001067 
0.001075 
0.001083 
0.001090 
0.001098 
0.001104 
0.001111 
0.001117 
0.001122 
0.001128 
0.001132 
0.001137 
0.001141 
0.001145 
0.001148 
0.001151 
0.001153 
0.001155 
0.001157 
0.001158 
0.001159 
0.001160 
0.000000 
0.000000 
0.000000 
0.000000 
0.000000 
0.000000 
0.000000 
0.000000 
0.000000 
0.000000 
0.000000 
0.000000 
0.000000 
0.000000 
0.000000 
0.000000 
0.000000 
0.000000 
0.000000 
0.000000 
0.000000 
0.000000 
0.000000 
0.000000 
0.000000 
0.000000 
0.000000 
0.000000 
0.000000 
0.000000 
0.000000 
0.000000 
0.000000 
0.000000 
0.000000 
0.000000 
0.000000 
0.000000 
0.000000 
0.000000 
0.000000 
0.000000 
0.000000 
0.000000 
0.000000 
0.000000 
0.000000 
0.000000 
0.000000 
0.000000 
0.000000 
0.000000 
0.000000 
0.000000 
0.000000 
0.000000 
0.000000 
0.000000 
0.000000 
0.000000 
0.000000 
0.000000 
0.000000 
0.000000 
0.000000 
0.000000 
0.000000 
0.000000 
0.000000 
0.000000 
0.000000 
0.000000 
0.000000 
0.000000 
0.000000 
0.000000 
0.000000 
0.000000 
0.000000 
0.000000 
0.000000 
0.000000 
0.000000 
0.000000 
0.000000 
0.000000 
0.000000 
0.000000 
0.000000 
0.000000 
0.000000 
0.000000 
0.000000 
0.000000 
0.000000 
0.000000 
0.000001 
0.000001 
0.000001 
0.000001 
0.000001 
0.000001 
0.000001 
0.000001 
0.000001 
0.000001 
0.000001 
0.000001 
0.000001 
0.000001 
0.000002 
0.000002 
0.000002 
0.000002 
0.000002 
0.000002 
0.000002 
0.000003 
0.000003 
0.000003 
0.000003 
0.000003 
0.000004 
0.000004 
0.000004 
0.000005 
0.000005 
0.000005 
0.000006 
0.000006 
0.000006 
0.000007 
0.000007 
0.000008 
0.000008 
0.000009 
0.000009 
0.000010 
0.000011 
0.000011 
0.000012 
0.000013 
0.000014 
0.000015 
0.000016 
0.000017 
0.000018 
0.000019 
0.000020 
0.000021 
0.000022 
0.000024 
0.000025 
0.000026 
0.000028 
0.000030 
0.000031 
0.000033 
0.000035 
0.000037 
0.000039 
0.000041 
0.000043 
0.000046 
0.000048 
0.000051 
0.000053 
0.000056 
0.000059 
0.000062 
0.000065 
0.000069 
0.000072 
0.000076 
0.000080 
0.000083 
0.000088 
0.000092 
0.000096 
0.000101 
0.000105 
0.000110 
0.000116 
0.000121 
0.000126 
0.000132 
0.000138 
0.000144 
0.000150 
0.000157 
0.000164 
0.000170 
0.000178 
0.000185 
0.000193 
0.000201 
0.000209 
0.000217 
0.000226 
0.000234 
0.000244 
0.000253 
0.000262 
0.000272 
0.000282 
0.000293 
0.000303 
0.000314 
0.000325 
0.000337 
0.000348 
0.000360 
0.000373 
0.000385 
0.000398 
0.000411 
0.000424 
0.000437 
0.000451 
0.000465 
0.000479 
0.000494 
0.000508 
0.000523 
0.000538 
0.000554 
0.000569 
0.000585 
0.000601 
0.000617 
0.000634 
0.000650 
0.000667 
0.000684 
0.000701 
0.000718 
0.000736 
0.000753 
0.000771 
0.000788 
0.000806 
0.000824 
0.000842 
0.000860 
0.000878 
0.000897 
0.000915 
0.000933 
0.000951 
0.000969 
0.000987 
0.001006 
0.001024 
0.001042 
0.001060 
0.001078 
0.001095 
0.001113 
0.001130 
0.001148 
0.001165 
0.001182 
0.001199 
0.001215 
0.001232 
0.001248 
0.001264 
0.001279 
0.001295 
0.001310 
0.001324 
0.001339 
0.001353 
0.001367 
0.001380 
0.001393 
0.001405 
0.001418 
0.001429 
0.001441 
0.001452 
0.001462 
0.001472 
0.001482 
0.001491 
0.001499 
0.001507 
0.001515 
0.001522 
0.001529 
0.001535 
0.001540 
0.001545 
0.001550 
0.001553 
0.001557 
0.001560 
0.001562 
0.001564 
0.001565 
0.001565 
0.000000 
0.000000 
0.000000 
0.000000 
0.000000 
0.000000 
0.000000 
0.000000 
0.000000 
0.000000 
0.000000 
0.000000 
0.000000 
0.000000 
0.000000 
0.000000 
0.000000 
0.000000 
0.000000 
0.000000 
0.000000 
0.000000 
0.000000 
0.000000 
0.000000 
0.000000 
0.000000 
0.000000 
0.000000 
0.000000 
0.000000 
0.000000 
0.000000 
0.000000 
0.000000 
0.000000 
0.000000 
0.000000 
0.000000 
0.000000 
0.000000 
0.000000 
0.000000 
0.000000 
0.000000 
0.000000 
0.000000 
0.000000 
0.000000 
0.000000 
0.000000 
0.000000 
0.000000 
0.000000 
0.000000 
0.000000 
0.000000 
0.000000 
0.000000 
0.000000 
0.000000 
0.000000 
0.000000 
0.000000 
0.000000 
0.000000 
0.000000 
0.000000 
0.000000 
0.000000 
0.000000 
0.000000 
0.000000 
0.000000 
0.000000 
0.000000 
0.000000 
0.000000 
0.000000 
0.000000 
0.000000 
0.000000 
0.000000 
0.000000 
0.000000 
0.000000 
0.000000 
0.000000 
0.000000 
0.000000 
0.000000 
0.000000 
0.000000 
0.000001 
0.000001 
0.000001 
0.000001 
0.000001 
0.000001 
0.000001 
0.000001 
0.000001 
0.000001 
0.000001 
0.000001 
0.000001 
0.000001 
0.000002 
0.000002 
0.000002 
0.000002 
0.000002 
0.000002 
0.000002 
0.000003 
0.000003 
0.000003 
0.000003 
0.000004 
0.000004 
0.000004 
0.000004 
0.000005 
0.000005 
0.000005 
0.000006 
0.000006 
0.000007 
0.000007 
0.000008 
0.000008 
0.000009 
0.000009 
0.000010 
0.000011 
0.000011 
0.000012 
0.000013 
0.000014 
0.000015 
0.000016 
0.000016 
0.000018 
0.000019 
0.000020 
0.000021 
0.000022 
0.000024 
0.000025 
0.000027 
0.000028 
0.000030 
0.000032 
0.000034 
0.000036 
0.000038 
0.000040 
0.000042 
0.000044 
0.000047 
0.000049 
0.000052 
0.000055 
0.000058 
0.000061 
0.000064 
0.000068 
0.000071 
0.000075 
0.000079 
0.000083 
0.000087 
0.000092 
0.000096 
0.000101 
0.000106 
0.000111 
0.000117 
0.000122 
0.000128 
0.000134 
0.000141 
0.000147 
0.000154 
0.000161 
0.000168 
0.000176 
0.000183 
0.000191 
0.000200 
0.000208 
0.000217 
0.000226 
0.000236 
0.000245 
0.000255 
0.000266 
0.000276 
0.000287 
0.000298 
0.000310 
0.000322 
0.000334 
0.000346 
0.000359 
0.000372 
0.000386 
0.000400 
0.000414 
0.000428 
0.000443 
0.000458 
0.000474 
0.000490 
0.000506 
0.000522 
0.000539 
0.000556 
0.000574 
0.000591 
0.000609 
0.000628 
0.000646 
0.000665 
0.000685 
0.000704 
0.000724 
0.000744 
0.000764 
0.000785 
0.000806 
0.000827 
0.000848 
0.000869 
0.000891 
0.000913 
0.000935 
0.000957 
0.000980 
0.001002 
0.001025 
0.001047 
0.001070 
0.001093 
0.001116 
0.001139 
0.001162 
0.001186 
0.001209 
0.001232 
0.001255 
0.001278 
0.001301 
0.001324 
0.001346 
0.001369 
0.001392 
0.001414 
0.001436 
0.001458 
0.001480 
0.001501 
0.001523 
0.001544 
0.001565 
0.001585 
0.001605 
0.001625 
0.001644 
0.001663 
0.001682 
0.001700 
0.001718 
0.001736 
0.001753 
0.001769 
0.001785 
0.001800 
0.001815 
0.001830 
0.001844 
0.001857 
0.001869 
0.001882 
0.001893 
0.001904 
0.001914 
0.001924 
0.001933 
0.001941 
0.001949 
0.001956 
0.001962 
0.001968 
0.001973 
0.001977 
0.001980 
0.001983 
0.001985 
0.001987 
0.001987 
0.000000 
0.000000 
0.000000 
0.000000 
0.000000 
0.000000 
0.000000 
0.000000 
0.000000 
0.000000 
0.000000 
0.000000 
0.000000 
0.000000 
0.000000 
0.000000 
0.000000 
0.000000 
0.000000 
0.000000 
0.000000 
0.000000 
0.000000 
0.000000 
0.000000 
0.000000 
0.000000 
0.000000 
0.000000 
0.000000 
0.000000 
0.000000 
0.000000 
0.000000 
0.000000 
0.000000 
0.000000 
0.000000 
0.000000 
0.000000 
0.000000 
0.000000 
0.000000 
0.000000 
0.000000 
0.000000 
0.000000 
0.000000 
0.000000 
0.000000 
0.000000 
0.000000 
0.000000 
0.000000 
0.000000 
0.000000 
0.000000 
0.000000 
0.000000 
0.000000 
0.000000 
0.000000 
0.000000 
0.000000 
0.000000 
0.000000 
0.000000 
0.000000 
0.000000 
0.000000 
0.000000 
0.000000 
0.000000 
0.000000 
0.000000 
0.000000 
0.000000 
0.000000 
0.000000 
0.000000 
0.000000 
0.000000 
0.000000 
0.000000 
0.000000 
0.000000 
0.000000 
0.000000 
0.000000 
0.000000 
0.000001 
0.000001 
0.000001 
0.000001 
0.000001 
0.000001 
0.000001 
0.000001 
0.000001 
0.000001 
0.000001 
0.000001 
0.000001 
0.000001 
0.000002 
0.000002 
0.000002 
0.000002 
0.000002 
0.000002 
0.000002 
0.000003 
0.000003 
0.000003 
0.000003 
0.000004 
0.000004 
0.000004 
0.000004 
0.000005 
0.000005 
0.000005 
0.000006 
0.000006 
0.000007 
0.000007 
0.000008 
0.000008 
0.000009 
0.000009 
0.000010 
0.000011 
0.000011 
0.000012 
0.000013 
0.000014 
0.000015 
0.000016 
0.000017 
0.000018 
0.000019 
0.000020 
0.000022 
0.000023 
0.000024 
0.000026 
0.000027 
0.000029 
0.000031 
0.000033 
0.000035 
0.000037 
0.000039 
0.000041 
0.000044 
0.000046 
0.000049 
0.000052 
0.000054 
0.000058 
0.000061 
0.000064 
0.000068 
0.000071 
0.000075 
0.000079 
0.000083 
0.000088 
0.000092 
0.000097 
0.000102 
0.000107 
0.000113 
0.000118 
0.000124 
0.000130 
0.000137 
0.000143 
0.000150 
0.000157 
0.000165 
0.000172 
0.000180 
0.000189 
0.000197 
0.000206 
0.000215 
0.000225 
0.000235 
0.000245 
0.000255 
0.000266 
0.000277 
0.000289 
0.000301 
0.000313 
0.000326 
0.000339 
0.000352 
0.000366 
0.000380 
0.000394 
0.000409 
0.000425 
0.000440 
0.000457 
0.000473 
0.000490 
0.000507 
0.000525 
0.000543 
0.000562 
0.000581 
0.000600 
0.000620 
0.000640 
0.000661 
0.000681 
0.000703 
0.000725 
0.000747 
0.000769 
0.000792 
0.000815 
0.000839 
0.000863 
0.000887 
0.000911 
0.000936 
0.000961 
0.000987 
0.001012 
0.001039 
0.001065 
0.001091 
0.001118 
0.001145 
0.001172 
0.001200 
0.001227 
0.001255 
0.001283 
0.001310 
0.001338 
0.001367 
0.001395 
0.001423 
0.001451 
0.001479 
0.001508 
0.001536 
0.001564 
0.001592 
0.001620 
0.001648 
0.001676 
0.001703 
0.001730 
0.001757 
0.001784 
0.001811 
0.001837 
0.001863 
0.001889 
0.001914 
0.001939 
0.001964 
0.001988 
0.002012 
0.002035 
0.002058 
0.002080 
0.002102 
0.002123 
0.002144 
0.002164 
0.002183 
0.002202 
0.002221 
0.002238 
0.002255 
0.002271 
0.002287 
0.002301 
0.002315 
0.002329 
0.002341 
0.002353 
0.002364 
0.002374 
0.002383 
0.002392 
0.002400 
0.002407 
0.002413 
0.002418 
0.002422 
0.002425 
0.002428 
0.002430 
0.002431 
0.000000 
0.000000 
0.000000 
0.000000 
0.000000 
0.000000 
0.000000 
0.000000 
0.000000 
0.000000 
0.000000 
0.000000 
0.000000 
0.000000 
0.000000 
0.000000 
0.000000 
0.000000 
0.000000 
0.000000 
0.000000 
0.000000 
0.000000 
0.000000 
0.000000 
0.000000 
0.000000 
0.000000 
0.000000 
0.000000 
0.000000 
0.000000 
0.000000 
0.000000 
0.000000 
0.000000 
0.000000 
0.000000 
0.000000 
0.000000 
0.000000 
0.000000 
0.000000 
0.000000 
0.000000 
0.000000 
0.000000 
0.000000 
0.000000 
0.000000 
0.000000 
0.000000 
0.000000 
0.000000 
0.000000 
0.000000 
0.000000 
0.000000 
0.000000 
0.000000 
0.000000 
0.000000 
0.000000 
0.000000 
0.000000 
0.000000 
0.000000 
0.000000 
0.000000 
0.000000 
0.000000 
0.000000 
0.000000 
0.000000 
0.000000 
0.000000 
0.000000 
0.000000 
0.000000 
0.000000 
0.000000 
0.000000 
0.000000 
0.000000 
0.000000 
0.000000 
0.000000 
0.000000 
0.000001 
0.000001 
0.000001 
0.000001 
0.000001 
0.000001 
0.000001 
0.000001 
0.000001 
0.000001 
0.000001 
0.000001 
0.000001 
0.000001 
0.000002 
0.000002 
0.000002 
0.000002 
0.000002 
0.000002 
0.000003 
0.000003 
0.000003 
0.000003 
0.000003 
0.000004 
0.000004 
0.000004 
0.000005 
0.000005 
0.000005 
0.000006 
0.000006 
0.000007 
0.000007 
0.000007 
0.000008 
0.000009 
0.000009 
0.000010 
0.000011 
0.000011 
0.000012 
0.000013 
0.000014 
0.000015 
0.000016 
0.000017 
0.000018 
0.000019 
0.000020 
0.000021 
0.000023 
0.000024 
0.000026 
0.000027 
0.000029 
0.000031 
0.000033 
0.000035 
0.000037 
0.000039 
0.000042 
0.000044 
0.000047 
0.000049 
0.000052 
0.000055 
0.000058 
0.000062 
0.000065 
0.000069 
0.000073 
0.000077 
0.000081 
0.000085 
0.000090 
0.000095 
0.000100 
0.000105 
0.000111 
0.000116 
0.000122 
0.000128 
0.000135 
0.000142 
0.000149 
0.000156 
0.000164 
0.000172 
0.000180 
0.000188 
0.000197 
0.000206 
0.000216 
0.000226 
0.000236 
0.000247 
0.000258 
0.000269 
0.000281 
0.000293 
0.000305 
0.000318 
0.000332 
0.000346 
0.000360 
0.000374 
0.000390 
0.000405 
0.000421 
0.000438 
0.000454 
0.000472 
0.000490 
0.000508 
0.000527 
0.000546 
0.000566 
0.000586 
0.000607 
0.000628 
0.000650 
0.000672 
0.000694 
0.000717 
0.000741 
0.000765 
0.000790 
0.000815 
0.000840 
0.000866 
0.000892 
0.000919 
0.000947 
0.000974 
0.001002 
0.001031 
0.001060 
0.001089 
0.001119 
0.001149 
0.001179 
0.001210 
0.001241 
0.001272 
0.001304 
0.001336 
0.001368 
0.001400 
0.001433 
0.001466 
0.001499 
0.001532 
0.001565 
0.001599 
0.001632 
0.001666 
0.001699 
0.001733 
0.001767 
0.001800 
0.001834 
0.001867 
0.001901 
0.001934 
0.001967 
0.002000 
0.002033 
0.002066 
0.002098 
0.002130 
0.002162 
0.002193 
0.002224 
0.002255 
0.002285 
0.002314 
0.002344 
0.002373 
0.002401 
0.002429 
0.002456 
0.002482 
0.002508 
0.002533 
0.002558 
0.002582 
0.002605 
0.002628 
0.002649 
0.002670 
0.002690 
0.002709 
0.002728 
0.002746 
0.002762 
0.002778 
0.002793 
0.002807 
0.002820 
0.002832 
0.002843 
0.002853 
0.002862 
0.002871 
0.002878 
0.002884 
0.002889 
0.002893 
0.002896 
0.002898 
0.002899 
0.000000 
0.000000 
0.000000 
0.000000 
0.000000 
0.000000 
0.000000 
0.000000 
0.000000 
0.000000 
0.000000 
0.000000 
0.000000 
0.000000 
0.000000 
0.000000 
0.000000 
0.000000 
0.000000 
0.000000 
0.000000 
0.000000 
0.000000 
0.000000 
0.000000 
0.000000 
0.000000 
0.000000 
0.000000 
0.000000 
0.000000 
0.000000 
0.000000 
0.000000 
0.000000 
0.000000 
0.000000 
0.000000 
0.000000 
0.000000 
0.000000 
0.000000 
0.000000 
0.000000 
0.000000 
0.000000 
0.000000 
0.000000 
0.000000 
0.000000 
0.000000 
0.000000 
0.000000 
0.000000 
0.000000 
0.000000 
0.000000 
0.000000 
0.000000 
0.000000 
0.000000 
0.000000 
0.000000 
0.000000 
0.000000 
0.000000 
0.000000 
0.000000 
0.000000 
0.000000 
0.000000 
0.000000 
0.000000 
0.000000 
0.000000 
0.000000 
0.000000 
0.000000 
0.000000 
0.000000 
0.000000 
0.000000 
0.000000 
0.000000 
0.000000 
0.000000 
0.000001 
0.000001 
0.000001 
0.000001 
0.000001 
0.000001 
0.000001 
0.000001 
0.000001 
0.000001 
0.000001 
0.000001 
0.000001 
0.000001 
0.000002 
0.000002 
0.000002 
0.000002 
0.000002 
0.000002 
0.000003 
0.000003 
0.000003 
0.000003 
0.000003 
0.000004 
0.000004 
0.000004 
0.000005 
0.000005 
0.000005 
0.000006 
0.000006 
0.000007 
0.000007 
0.000008 
0.000008 
0.000009 
0.000009 
0.000010 
0.000011 
0.000012 
0.000012 
0.000013 
0.000014 
0.000015 
0.000016 
0.000017 
0.000018 
0.000020 
0.000021 
0.000022 
0.000024 
0.000025 
0.000027 
0.000029 
0.000030 
0.000032 
0.000034 
0.000036 
0.000039 
0.000041 
0.000044 
0.000046 
0.000049 
0.000052 
0.000055 
0.000058 
0.000062 
0.000065 
0.000069 
0.000073 
0.000077 
0.000081 
0.000086 
0.000090 
0.000095 
0.000100 
0.000106 
0.000112 
0.000117 
0.000124 
0.000130 
0.000137 
0.000144 
0.000151 
0.000159 
0.000167 
0.000175 
0.000184 
0.000193 
0.000202 
0.000212 
0.000222 
0.000232 
0.000243 
0.000254 
0.000266 
0.000278 
0.000290 
0.000303 
0.000316 
0.000330 
0.000345 
0.000359 
0.000374 
0.000390 
0.000406 
0.000423 
0.000440 
0.000458 
0.000476 
0.000495 
0.000514 
0.000534 
0.000555 
0.000576 
0.000597 
0.000619 
0.000642 
0.000665 
0.000689 
0.000713 
0.000738 
0.000764 
0.000790 
0.000816 
0.000843 
0.000871 
0.000899 
0.000928 
0.000957 
0.000987 
0.001018 
0.001049 
0.001080 
0.001112 
0.001144 
0.001177 
0.001211 
0.001245 
0.001279 
0.001314 
0.001349 
0.001385 
0.001421 
0.001457 
0.001494 
0.001531 
0.001568 
0.001606 
0.001644 
0.001682 
0.001721 
0.001759 
0.001798 
0.001837 
0.001876 
0.001915 
0.001955 
0.001994 
0.002034 
0.002073 
0.002112 
0.002152 
0.002191 
0.002230 
0.002269 
0.002308 
0.002346 
0.002385 
0.002423 
0.002461 
0.002498 
0.002535 
0.002572 
0.002608 
0.002644 
0.002679 
0.002714 
0.002748 
0.002782 
0.002815 
0.002848 
0.002879 
0.002910 
0.002941 
0.002970 
0.002999 
0.003027 
0.003054 
0.003080 
0.003106 
0.003130 
0.003154 
0.003176 
0.003198 
0.003218 
0.003238 
0.003256 
0.003274 
0.003290 
0.003305 
0.003319 
0.003332 
0.003344 
0.003355 
0.003364 
0.003373 
0.003380 
0.003386 
0.003391 
0.003394 
0.003397 
0.003398 
0.000000 
0.000000 
0.000000 
0.000000 
0.000000 
0.000000 
0.000000 
0.000000 
0.000000 
0.000000 
0.000000 
0.000000 
0.000000 
0.000000 
0.000000 
0.000000 
0.000000 
0.000000 
0.000000 
0.000000 
0.000000 
0.000000 
0.000000 
0.000000 
0.000000 
0.000000 