# vtk DataFile Version 3.0
results.vtk
ASCII
DATASET RECTILINEAR_GRID
DIMENSIONS 301 301 1
X_COORDINATES 301 double
0.000000 0.003333 0.006667 0.010000 0.013333 0.016667 0.020000 0.023333 0.026667 0.030000 0.033333 0.036667 0.040000 0.043333 0.046667 0.050000 0.053333 0.056667 0.060000 0.063333 0.066667 0.070000 0.073333 0.076667 0.080000 0.083333 0.086667 0.090000 0.093333 0.096667 0.100000 0.103333 0.106667 0.110000 0.113333 0.116667 0.120000 0.123333 0.126667 0.130000 0.133333 0.136667 0.140000 0.143333 0.146667 0.150000 0.153333 0.156667 0.160000 0.163333 0.166667 0.170000 0.173333 0.176667 0.180000 0.183333 0.186667 0.190000 0.193333 0.196667 0.200000 0.203333 0.206667 0.210000 0.213333 0.216667 0.220000 0.223333 0.226667 0.230000 0.233333 0.236667 0.240000 0.243333 0.246667 0.250000 0.253333 0.256667 0.260000 0.263333 0.266667 0.270000 0.273333 0.276667 0.280000 0.283333 0.286667 0.290000 0.293333 0.296667 0.300000 0.303333 0.306667 0.310000 0.313333 0.316667 0.320000 0.323333 0.326667 0.330000 0.333333 0.336667 0.340000 0.343333 0.346667 0.350000 0.353333 0.356667 0.360000 0.363333 0.366667 0.370000 0.373333 0.376667 0.380000 0.383333 0.386667 0.390000 0.393333 0.396667 0.400000 0.403333 0.406667 0.410000 0.413333 0.416667 0.420000 0.423333 0.426667 0.430000 0.433333 0.436667 0.440000 0.443333 0.446667 0.450000 0.453333 0.456667 0.460000 0.463333 0.466667 0.470000 0.473333 0.476667 0.480000 0.483333 0.486667 0.490000 0.493333 0.496667 0.500000 0.503333 0.506667 0.510000 0.513333 0.516667 0.520000 0.523333 0.526667 0.530000 0.533333 0.536667 0.540000 0.543333 0.546667 0.550000 0.553333 0.556667 0.560000 0.563333 0.566667 0.570000 0.573333 0.576667 0.580000 0.583333 0.586667 0.590000 0.593333 0.596667 0.600000 0.603333 0.606667 0.610000 0.613333 0.616667 0.620000 0.623333 0.626667 0.630000 0.633333 0.636667 0.640000 0.643333 0.646667 0.650000 0.653333 0.656667 0.660000 0.663333 0.666667 0.670000 0.673333 0.676667 0.680000 0.683333 0.686667 0.690000 0.693333 0.696667 0.700000 0.703333 0.706667 0.710000 0.713333 0.716667 0.720000 0.723333 0.726667 0.730000 0.733333 0.736667 0.740000 0.743333 0.746667 0.750000 0.753333 0.756667 0.760000 0.763333 0.766667 0.770000 0.773333 0.776667 0.780000 0.783333 0.786667 0.790000 0.793333 0.796667 0.800000 0.803333 0.806667 0.810000 0.813333 0.816667 0.820000 0.823333 0.826667 0.830000 0.833333 0.836667 0.840000 0.843333 0.846667 0.850000 0.853333 0.856667 0.860000 0.863333 0.866667 0.870000 0.873333 0.876667 0.880000 0.883333 0.886667 0.890000 0.893333 0.896667 0.900000 0.903333 0.906667 0.910000 0.913333 0.916667 0.920000 0.923333 0.926667 0.930000 0.933333 0.936667 0.940000 0.943333 0.946667 0.950000 0.953333 0.956667 0.960000 0.963333 0.966667 0.970000 0.973333 0.976667 0.980000 0.983333 0.986667 0.990000 0.993333 0.996667 1.000000 
Y_COORDINATES 301 double
0.000000 0.003333 0.006667 0.010000 0.013333 0.016667 0.020000 0.023333 0.026667 0.030000 0.033333 0.036667 0.040000 0.043333 0.046667 0.050000 0.053333 0.056667 0.060000 0.063333 0.066667 0.070000 0.073333 0.076667 0.080000 0.083333 0.086667 0.090000 0.093333 0.096667 0.100000 0.103333 0.106667 0.110000 0.113333 0.116667 0.120000 0.123333 0.126667 0.130000 0.133333 0.136667 0.140000 0.143333 0.146667 0.150000 0.153333 0.156667 0.160000 0.163333 0.166667 0.170000 0.173333 0.176667 0.180000 0.183333 0.186667 0.190000 0.193333 0.196667 0.200000 0.203333 0.206667 0.210000 0.213333 0.216667 0.220000 0.223333 0.226667 0.230000 0.233333 0.236667 0.240000 0.243333 0.246667 0.250000 0.253333 0.256667 0.260000 0.263333 0.266667 0.270000 0.273333 0.276667 0.280000 0.283333 0.286667 0.290000 0.293333 0.296667 0.300000 0.303333 0.306667 0.310000 0.313333 0.316667 0.320000 0.323333 0.326667 0.330000 0.333333 0.336667 0.340000 0.343333 0.346667 0.350000 0.353333 0.356667 0.360000 0.363333 0.366667 0.370000 0.373333 0.376667 0.380000 0.383333 0.386667 0.390000 0.393333 0.396667 0.400000 0.403333 0.406667 0.410000 0.413333 0.416667 0.420000 0.423333 0.426667 0.430000 0.433333 0.436667 0.440000 0.443333 0.446667 0.450000 0.453333 0.456667 0.460000 0.463333 0.466667 0.470000 0.473333 0.476667 0.480000 0.483333 0.486667 0.490000 0.493333 0.496667 0.500000 0.503333 0.506667 0.510000 0.513333 0.516667 0.520000 0.523333 0.526667 0.530000 0.533333 0.536667 0.540000 0.543333 0.546667 0.550000 0.553333 0.556667 0.560000 0.563333 0.566667 0.570000 0.573333 0.576667 0.580000 0.583333 0.586667 0.590000 0.593333 0.596667 0.600000 0.603333 0.606667 0.610000 0.613333 0.616667 0.620000 0.623333 0.626667 0.630000 0.633333 0.636667 0.640000 0.643333 0.646667 0.650000 0.653333 0.656667 0.660000 0.663333 0.666667 0.670000 0.673333 0.676667 0.680000 0.683333 0.686667 0.690000 0.693333 0.696667 0.700000 0.703333 0.706667 0.710000 0.713333 0.716667 0.720000 0.723333 0.726667 0.730000 0.733333 0.736667 0.740000 0.743333 0.746667 0.750000 0.753333 0.756667 0.760000 0.763333 0.766667 0.770000 0.773333 0.776667 0.780000 0.783333 0.786667 0.790000 0.793333 0.796667 0.800000 0.803333 0.806667 0.810000 0.813333 0.816667 0.820000 0.823333 0.826667 0.830000 0.833333 0.836667 0.840000 0.843333 0.846667 0.850000 0.853333 0.856667 0.860000 0.863333 0.866667 0.870000 0.873333 0.876667 0.880000 0.883333 0.886667 0.890000 0.893333 0.896667 0.900000 0.903333 0.906667 0.910000 0.913333 0.916667 0.920000 0.923333 0.926667 0.930000 0.933333 0.936667 0.940000 0.943333 0.946667 0.950000 0.953333 0.956667 0.960000 0.963333 0.966667 0.970000 0.973333 0.976667 0.980000 0.983333 0.986667 0.990000 0.993333 0.996667 1.000000 
Z_COORDINATES 1 double
0
POINT_DATA 90601 
FIELD FieldData 1 
Concentração 1 90601 double 
0.000000 
0.000000 
0.000000 
0.000000 
0.000000 
0.000000 
0.000000 
0.000000 
0.000000 
0.000000 
0.000000 
0.000000 
0.000000 
0.000000 
0.000000 
0.000000 
0.000000 
0.000000 
0.000000 
0.000000 
0.000000 
0.000000 
0.000000 
0.000000 
0.000000 
0.000000 
0.000000 
0.000000 
0.000000 
0.000000 
0.000000 
0.000000 
0.000000 
0.000000 
0.000000 
0.000000 
0.000000 
0.000000 
0.000000 
0.000000 
0.000000 
0.000000 
0.000000 
0.000000 
0.000000 
0.000000 
0.000000 
0.000001 
0.000001 
0.000001 
0.000001 
0.000001 
0.000001 
0.000001 
0.000001 
0.000001 
0.000001 
0.000001 
0.000001 
0.000001 
0.000002 
0.000002 
0.000002 
0.000002 
0.000002 
0.000002 
0.000003 
0.000003 
0.000003 
0.000003 
0.000004 
0.000004 
0.000004 
0.000005 
0.000005 
0.000005 
0.000006 
0.000006 
0.000007 
0.000007 
0.000008 
0.000008 
0.000009 
0.000010 
0.000010 
0.000011 
0.000012 
0.000013 
0.000014 
0.000015 
0.000016 
0.000017 
0.000019 
0.000020 
0.000022 
0.000023 
0.000025 
0.000027 
0.000028 
0.000030 
0.000033 
0.000035 
0.000037 
0.000040 
0.000043 
0.000045 
0.000049 
0.000052 
0.000055 
0.000059 
0.000063 
0.000067 
0.000071 
0.000076 
0.000081 
0.000086 
0.000092 
0.000097 
0.000103 
0.000110 
0.000117 
0.000124 
0.000131 
0.000139 
0.000148 
0.000157 
0.000166 
0.000176 
0.000186 
0.000197 
0.000208 
0.000220 
0.000232 
0.000245 
0.000259 
0.000273 
0.000288 
0.000304 
0.000320 
0.000337 
0.000355 
0.000373 
0.000393 
0.000413 
0.000434 
0.000456 
0.000479 
0.000503 
0.000528 
0.000553 
0.000580 
0.000608 
0.000637 
0.000667 
0.000698 
0.000730 
0.000764 
0.000798 
0.000834 
0.000871 
0.000909 
0.000948 
0.000989 
0.001031 
0.001075 
0.001119 
0.001166 
0.001213 
0.001262 
0.001312 
0.001364 
0.001417 
0.001472 
0.001528 
0.001585 
0.001644 
0.001705 
0.001767 
0.001830 
0.001895 
0.001961 
0.002029 
0.002099 
0.002170 
0.002242 
0.002316 
0.002391 
0.002467 
0.002546 
0.002625 
0.002706 
0.002788 
0.002872 
0.002957 
0.003043 
0.003131 
0.003220 
0.003310 
0.003401 
0.003493 
0.003587 
0.003682 
0.003778 
0.003875 
0.003972 
0.004071 
0.004171 
0.004272 
0.004373 
0.004475 
0.004578 
0.004682 
0.004787 
0.004892 
0.004997 
0.005103 
0.005210 
0.005317 
0.005424 
0.005532 
0.005640 
0.005748 
0.005857 
0.005965 
0.006074 
0.006183 
0.006291 
0.006400 
0.006508 
0.006616 
0.006724 
0.006832 
0.006939 
0.007046 
0.007152 
0.007258 
0.007364 
0.007468 
0.007573 
0.007676 
0.007779 
0.007881 
0.007982 
0.008082 
0.008181 
0.008280 
0.008377 
0.008473 
0.008569 
0.008663 
0.008756 
0.008847 
0.008938 
0.009027 
0.009115 
0.009201 
0.009286 
0.009370 
0.009452 
0.009533 
0.009612 
0.009690 
0.009766 
0.009840 
0.009913 
0.009984 
0.010054 
0.010121 
0.010187 
0.010251 
0.010314 
0.010374 
0.010433 
0.010490 
0.010545 
0.010598 
0.010650 
0.010699 
0.010746 
0.010792 
0.010835 
0.010877 
0.010916 
0.010954 
0.010989 
0.011023 
0.011054 
0.011083 
0.011111 
0.011136 
0.011159 
0.011180 
0.011199 
0.011216 
0.011231 
0.011243 
0.011254 
0.011262 
0.011269 
0.011273 
0.011275 
0.000000 
0.000000 
0.000000 
0.000000 
0.000000 
0.000000 
0.000000 
0.000000 
0.000000 
0.000000 
0.000000 
0.000000 
0.000000 
0.000000 
0.000000 
0.000000 
0.000000 
0.000000 
0.000000 
0.000000 
0.000000 
0.000000 
0.000000 
0.000000 
0.000000 
0.000000 
0.000000 
0.000000 
0.000000 
0.000000 
0.000000 
0.000000 
0.000000 
0.000000 
0.000000 
0.000000 
0.000000 
0.000000 
0.000000 
0.000001 
0.000001 
0.000001 
0.000001 
0.000001 
0.000001 
0.000001 
0.000001 
0.000001 
0.000001 
0.000001 
0.000001 
0.000001 
0.000002 
0.000002 
0.000002 
0.000002 
0.000002 
0.000002 
0.000003 
0.000003 
0.000003 
0.000003 
0.000004 
0.000004 
0.000004 
0.000005 
0.000005 
0.000006 
0.000006 
0.000007 
0.000007 
0.000008 
0.000008 
0.000009 
0.000010 
0.000011 
0.000011 
0.000012 
0.000013 
0.000014 
0.000016 
0.000017 
0.000018 
0.000019 
0.000021 
0.000023 
0.000024 
0.000026 
0.000028 
0.000030 
0.000033 
0.000035 
0.000038 
0.000040 
0.000043 
0.000046 
0.000050 
0.000053 
0.000057 
0.000061 
0.000065 
0.000070 
0.000075 
0.000080 
0.000086 
0.000091 
0.000098 
0.000104 
0.000111 
0.000119 
0.000126 
0.000135 
0.000143 
0.000153 
0.000163 
0.000173 
0.000184 
0.000196 
0.000208 
0.000221 
0.000235 
0.000249 
0.000264 
0.000280 
0.000297 
0.000315 
0.000333 
0.000353 
0.000373 
0.000395 
0.000417 
0.000441 
0.000466 
0.000492 
0.000520 
0.000548 
0.000578 
0.000610 
0.000642 
0.000677 
0.000712 
0.000750 
0.000789 
0.000829 
0.000872 
0.000916 
0.000962 
0.001010 
0.001059 
0.001111 
0.001165 
0.001221 
0.001279 
0.001339 
0.001401 
0.001466 
0.001532 
0.001602 
0.001673 
0.001748 
0.001824 
0.001903 
0.001985 
0.002069 
0.002156 
0.002246 
0.002339 
0.002434 
0.002532 
0.002633 
0.002736 
0.002843 
0.002952 
0.003064 
0.003180 
0.003298 
0.003419 
0.003543 
0.003670 
0.003800 
0.003933 
0.004069 
0.004208 
0.004350 
0.004495 
0.004642 
0.004793 
0.004946 
0.005103 
0.005262 
0.005424 
0.005588 
0.005756 
0.005926 
0.006099 
0.006274 
0.006452 
0.006632 
0.006814 
0.006999 
0.007187 
0.007376 
0.007568 
0.007761 
0.007957 
0.008155 
0.008354 
0.008555 
0.008758 
0.008962 
0.009168 
0.009376 
0.009584 
0.009794 
0.010005 
0.010217 
0.010430 
0.010644 
0.010859 
0.011074 
0.011289 
0.011505 
0.011722 
0.011939 
0.012155 
0.012372 
0.012589 
0.012805 
0.013022 
0.013238 
0.013453 
0.013668 
0.013882 
0.014095 
0.014307 
0.014519 
0.014729 
0.014938 
0.015146 
0.015352 
0.015557 
0.015760 
0.015962 
0.016162 
0.016360 
0.016556 
0.016750 
0.016942 
0.017132 
0.017319 
0.017504 
0.017687 
0.017867 
0.018045 
0.018220 
0.018392 
0.018562 
0.018728 
0.018892 
0.019053 
0.019211 
0.019365 
0.019517 
0.019665 
0.019810 
0.019952 
0.020090 
0.020225 
0.020356 
0.020484 
0.020608 
0.020729 
0.020846 
0.020959 
0.021069 
0.021175 
0.021277 
0.021375 
0.021469 
0.021560 
0.021647 
0.021729 
0.021808 
0.021882 
0.021953 
0.022020 
0.022082 
0.022140 
0.022195 
0.022245 
0.022291 
0.022333 
0.022371 
0.022404 
0.022434 
0.022459 
0.022480 
0.022497 
0.022510 
0.022518 
0.022522 
0.000000 
0.000000 
0.000000 
0.000000 
0.000000 
0.000000 
0.000000 
0.000000 
0.000000 
0.000000 
0.000000 
0.000000 
0.000000 
0.000000 
0.000000 
0.000000 
0.000000 
0.000000 
0.000000 
0.000000 
0.000000 
0.000000 
0.000000 
0.000000 
0.000000 
0.000000 
0.000000 
0.000000 
0.000000 
0.000000 
0.000000 
0.000000 
0.000000 
0.000000 
0.000000 
0.000001 
0.000001 
0.000001 
0.000001 
0.000001 
0.000001 
0.000001 
0.000001 
0.000001 
0.000001 
0.000001 
0.000001 
0.000002 
0.000002 
0.000002 
0.000002 
0.000002 
0.000002 
0.000003 
0.000003 
0.000003 
0.000003 
0.000004 
0.000004 
0.000004 
0.000005 
0.000005 
0.000006 
0.000006 
0.000007 
0.000007 
0.000008 
0.000009 
0.000009 
0.000010 
0.000011 
0.000012 
0.000013 
0.000014 
0.000015 
0.000016 
0.000017 
0.000019 
0.000020 
0.000022 
0.000024 
0.000025 
0.000027 
0.000029 
0.000032 
0.000034 
0.000037 
0.000040 
0.000043 
0.000046 
0.000049 
0.000053 
0.000057 
0.000061 
0.000065 
0.000070 
0.000075 
0.000081 
0.000086 
0.000092 
0.000099 
0.000106 
0.000113 
0.000121 
0.000129 
0.000138 
0.000147 
0.000157 
0.000168 
0.000179 
0.000191 
0.000204 
0.000217 
0.000231 
0.000246 
0.000262 
0.000278 
0.000296 
0.000314 
0.000334 
0.000354 
0.000376 
0.000399 
0.000423 
0.000449 
0.000475 
0.000503 
0.000533 
0.000564 
0.000596 
0.000631 
0.000667 
0.000704 
0.000744 
0.000785 
0.000828 
0.000873 
0.000921 
0.000970 
0.001022 
0.001076 
0.001132 
0.001191 
0.001252 
0.001316 
0.001383 
0.001452 
0.001524 
0.001599 
0.001677 
0.001758 
0.001842 
0.001930 
0.002020 
0.002114 
0.002212 
0.002312 
0.002417 
0.002525 
0.002636 
0.002752 
0.002871 
0.002994 
0.003121 
0.003252 
0.003387 
0.003527 
0.003670 
0.003817 
0.003969 
0.004125 
0.004286 
0.004450 
0.004619 
0.004793 
0.004970 
0.005153 
0.005339 
0.005530 
0.005726 
0.005926 
0.006130 
0.006339 
0.006552 
0.006770 
0.006992 
0.007218 
0.007449 
0.007683 
0.007923 
0.008166 
0.008413 
0.008664 
0.008920 
0.009179 
0.009442 
0.009709 
0.009979 
0.010253 
0.010531 
0.010811 
0.011096 
0.011383 
0.011673 
0.011967 
0.012263 
0.012562 
0.012863 
0.013167 
0.013474 
0.013782 
0.014093 
0.014405 
0.014720 
0.015036 
0.015353 
0.015672 
0.015992 
0.016313 
0.016635 
0.016958 
0.017281 
0.017605 
0.017929 
0.018253 
0.018578 
0.018902 
0.019226 
0.019549 
0.019871 
0.020193 
0.020514 
0.020834 
0.021153 
0.021470 
0.021786 
0.022100 
0.022412 
0.022722 
0.023031 
0.023336 
0.023640 
0.023941 
0.024239 
0.024535 
0.024828 
0.025117 
0.025404 
0.025687 
0.025967 
0.026243 
0.026515 
0.026784 
0.027049 
0.027310 
0.027567 
0.027820 
0.028068 
0.028313 
0.028552 
0.028787 
0.029018 
0.029244 
0.029464 
0.029681 
0.029892 
0.030098 
0.030299 
0.030494 
0.030685 
0.030870 
0.031050 
0.031224 
0.031393 
0.031556 
0.031714 
0.031866 
0.032012 
0.032153 
0.032287 
0.032416 
0.032539 
0.032656 
0.032767 
0.032872 
0.032971 
0.033065 
0.033152 
0.033232 
0.033307 
0.033376 
0.033438 
0.033494 
0.033544 
0.033588 
0.033626 
0.033657 
0.033682 
0.033701 
0.033713 
0.033720 
0.000000 
0.000000 
0.000000 
0.000000 
0.000000 
0.000000 
0.000000 
0.000000 
0.000000 
0.000000 
0.000000 
0.000000 
0.000000 
0.000000 
0.000000 
0.000000 
0.000000 
0.000000 
0.000000 
0.000000 
0.000000 
0.000000 
0.000000 
0.000000 
0.000000 
0.000000 
0.000000 
0.000000 
0.000000 
0.000000 
0.000000 
0.000000 
0.000001 
0.000001 
0.000001 
0.000001 
0.000001 
0.000001 
0.000001 
0.000001 
0.000001 
0.000001 
0.000001 
0.000001 
0.000002 
0.000002 
0.000002 
0.000002 
0.000002 
0.000003 
0.000003 
0.000003 
0.000003 
0.000004 
0.000004 
0.000004 
0.000005 
0.000005 
0.000005 
0.000006 
0.000006 
0.000007 
0.000008 
0.000008 
0.000009 
0.000010 
0.000011 
0.000011 
0.000012 
0.000013 
0.000015 
0.000016 
0.000017 
0.000018 
0.000020 
0.000022 
0.000023 
0.000025 
0.000027 
0.000029 
0.000032 
0.000034 
0.000037 
0.000040 
0.000043 
0.000046 
0.000050 
0.000053 
0.000057 
0.000062 
0.000066 
0.000071 
0.000076 
0.000082 
0.000088 
0.000094 
0.000101 
0.000109 
0.000116 
0.000124 
0.000133 
0.000143 
0.000153 
0.000163 
0.000174 
0.000186 
0.000199 
0.000212 
0.000226 
0.000241 
0.000257 
0.000274 
0.000292 
0.000311 
0.000331 
0.000352 
0.000375 
0.000398 
0.000423 
0.000450 
0.000477 
0.000507 
0.000537 
0.000570 
0.000604 
0.000640 
0.000678 
0.000718 
0.000759 
0.000803 
0.000849 
0.000897 
0.000948 
0.001001 
0.001057 
0.001115 
0.001176 
0.001239 
0.001306 
0.001375 
0.001448 
0.001524 
0.001603 
0.001685 
0.001771 
0.001860 
0.001953 
0.002050 
0.002151 
0.002256 
0.002365 
0.002478 
0.002595 
0.002717 
0.002843 
0.002973 
0.003109 
0.003249 
0.003394 
0.003544 
0.003698 
0.003858 
0.004024 
0.004194 
0.004370 
0.004551 
0.004737 
0.004929 
0.005127 
0.005330 
0.005539 
0.005754 
0.005975 
0.006201 
0.006433 
0.006671 
0.006915 
0.007165 
0.007421 
0.007682 
0.007950 
0.008223 
0.008503 
0.008788 
0.009079 
0.009375 
0.009678 
0.009986 
0.010300 
0.010619 
0.010944 
0.011274 
0.011610 
0.011951 
0.012297 
0.012648 
0.013004 
0.013365 
0.013730 
0.014100 
0.014475 
0.014854 
0.015237 
0.015624 
0.016015 
0.016409 
0.016808 
0.017209 
0.017614 
0.018022 
0.018433 
0.018846 
0.019262 
0.019680 
0.020101 
0.020523 
0.020947 
0.021373 
0.021800 
0.022228 
0.022657 
0.023087 
0.023517 
0.023948 
0.024378 
0.024809 
0.025239 
0.025669 
0.026098 
0.026527 
0.026954 
0.027380 
0.027804 
0.028227 
0.028648 
0.029066 
0.029483 
0.029897 
0.030308 
0.030717 
0.031122 
0.031524 
0.031923 
0.032318 
0.032710 
0.033097 
0.033481 
0.033860 
0.034235 
0.034605 
0.034971 
0.035332 
0.035688 
0.036038 
0.036384 
0.036723 
0.037058 
0.037386 
0.037709 
0.038026 
0.038337 
0.038642 
0.038940 
0.039232 
0.039518 
0.039797 
0.040069 
0.040335 
0.040593 
0.040845 
0.041089 
0.041327 
0.041557 
0.041780 
0.041996 
0.042204 
0.042405 
0.042598 
0.042783 
0.042961 
0.043131 
0.043294 
0.043448 
0.043595 
0.043734 
0.043865 
0.043987 
0.044102 
0.044209 
0.044308 
0.044398 
0.044480 
0.044555 
0.044621 
0.044678 
0.044728 
0.044769 
0.044802 
0.044827 
0.044844 
0.044852 
0.000000 
0.000000 
0.000000 
0.000000 
0.000000 
0.000000 
0.000000 
0.000000 
0.000000 
0.000000 
0.000000 
0.000000 
0.000000 
0.000000 
0.000000 
0.000000 
0.000000 
0.000000 
0.000000 
0.000000 
0.000000 
0.000000 
0.000000 
0.000000 
0.000000 
0.000000 
0.000000 
0.000000 
0.000000 
0.000001 
0.000001 
0.000001 
0.000001 
0.000001 
0.000001 
0.000001 
0.000001 
0.000001 
0.000001 
0.000001 
0.000001 
0.000002 
0.000002 
0.000002 
0.000002 
0.000002 
0.000002 
0.000003 
0.000003 
0.000003 
0.000003 
0.000004 
0.000004 
0.000005 
0.000005 
0.000005 
0.000006 
0.000006 
0.000007 
0.000008 
0.000008 
0.000009 
0.000010 
0.000011 
0.000011 
0.000012 
0.000013 
0.000015 
0.000016 
0.000017 
0.000018 
0.000020 
0.000022 
0.000023 
0.000025 
0.000027 
0.000030 
0.000032 
0.000035 
0.000037 
0.000040 
0.000043 
0.000047 
0.000050 
0.000054 
0.000058 
0.000063 
0.000068 
0.000073 
0.000078 
0.000084 
0.000090 
0.000097 
0.000104 
0.000112 
0.000120 
0.000128 
0.000138 
0.000147 
0.000158 
0.000169 
0.000181 
0.000193 
0.000207 
0.000221 
0.000236 
0.000252 
0.000269 
0.000287 
0.000306 
0.000326 
0.000348 
0.000370 
0.000394 
0.000420 
0.000446 
0.000475 
0.000505 
0.000536 
0.000569 
0.000605 
0.000642 
0.000681 
0.000722 
0.000765 
0.000810 
0.000858 
0.000908 
0.000961 
0.001017 
0.001075 
0.001136 
0.001200 
0.001267 
0.001337 
0.001411 
0.001488 
0.001568 
0.001652 
0.001740 
0.001831 
0.001927 
0.002027 
0.002131 
0.002239 
0.002352 
0.002470 
0.002592 
0.002719 
0.002852 
0.002989 
0.003131 
0.003279 
0.003433 
0.003592 
0.003757 
0.003927 
0.004104 
0.004286 
0.004475 
0.004670 
0.004872 
0.005080 
0.005294 
0.005516 
0.005744 
0.005978 
0.006220 
0.006469 
0.006725 
0.006988 
0.007258 
0.007535 
0.007819 
0.008111 
0.008410 
0.008717 
0.009031 
0.009352 
0.009680 
0.010016 
0.010359 
0.010710 
0.011068 
0.011433 
0.011805 
0.012184 
0.012571 
0.012964 
0.013364 
0.013771 
0.014185 
0.014605 
0.015032 
0.015465 
0.015905 
0.016350 
0.016802 
0.017259 
0.017722 
0.018190 
0.018664 
0.019143 
0.019626 
0.020115 
0.020608 
0.021105 
0.021607 
0.022112 
0.022621 
0.023134 
0.023650 
0.024168 
0.024690 
0.025214 
0.025741 
0.026269 
0.026799 
0.027331 
0.027865 
0.028399 
0.028934 
0.029470 
0.030005 
0.030541 
0.031077 
0.031613 
0.032147 
0.032681 
0.033213 
0.033744 
0.034274 
0.034801 
0.035326 
0.035849 
0.036369 
0.036886 
0.037399 
0.037910 
0.038417 
0.038920 
0.039419 
0.039913 
0.040404 
0.040889 
0.041370 
0.041845 
0.042315 
0.042780 
0.043238 
0.043691 
0.044138 
0.044579 
0.045013 
0.045441 
0.045861 
0.046275 
0.046682 
0.047082 
0.047474 
0.047858 
0.048235 
0.048604 
0.048966 
0.049319 
0.049664 
0.050000 
0.050329 
0.050648 
0.050959 
0.051262 
0.051555 
0.051840 
0.052115 
0.052382 
0.052639 
0.052887 
0.053125 
0.053354 
0.053574 
0.053784 
0.053985 
0.054176 
0.054357 
0.054528 
0.054690 
0.054841 
0.054983 
0.055115 
0.055236 
0.055348 
0.055450 
0.055541 
0.055623 
0.055694 
0.055755 
0.055806 
0.055847 
0.055878 
0.055898 
0.055908 
0.000000 
0.000000 
0.000000 
0.000000 
0.000000 
0.000000 
0.000000 
0.000000 
0.000000 
0.000000 
0.000000 
0.000000 
0.000000 
0.000000 
0.000000 
0.000000 
0.000000 
0.000000 
0.000000 
0.000000 
0.000000 
0.000000 
0.000000 
0.000000 
0.000000 
0.000000 
0.000000 
0.000001 
0.000001 
0.000001 
0.000001 
0.000001 
0.000001 
0.000001 
0.000001 
0.000001 
0.000001 
0.000001 
0.000001 
0.000002 
0.000002 
0.000002 
0.000002 
0.000002 
0.000003 
0.000003 
0.000003 
0.000003 
0.000004 
0.000004 
0.000004 
0.000005 
0.000005 
0.000006 
0.000006 
0.000007 
0.000007 
0.000008 
0.000008 
0.000009 
0.000010 
0.000011 
0.000012 
0.000013 
0.000014 
0.000015 
0.000016 
0.000018 
0.000019 
0.000021 
0.000023 
0.000024 
0.000026 
0.000029 
0.000031 
0.000033 
0.000036 
0.000039 
0.000042 
0.000046 
0.000049 
0.000053 
0.000057 
0.000061 
0.000066 
0.000071 
0.000077 
0.000083 
0.000089 
0.000095 
0.000103 
0.000110 
0.000118 
0.000127 
0.000136 
0.000146 
0.000157 
0.000168 
0.000180 
0.000193 
0.000206 
0.000221 
0.000236 
0.000252 
0.000269 
0.000288 
0.000307 
0.000328 
0.000350 
0.000373 
0.000398 
0.000424 
0.000452 
0.000481 
0.000512 
0.000544 
0.000579 
0.000615 
0.000654 
0.000694 
0.000737 
0.000782 
0.000830 
0.000880 
0.000932 
0.000988 
0.001046 
0.001107 
0.001171 
0.001239 
0.001310 
0.001384 
0.001462 
0.001543 
0.001629 
0.001718 
0.001812 
0.001909 
0.002012 
0.002118 
0.002230 
0.002346 
0.002467 
0.002594 
0.002725 
0.002863 
0.003005 
0.003154 
0.003308 
0.003469 
0.003635 
0.003808 
0.003988 
0.004174 
0.004367 
0.004566 
0.004773 
0.004987 
0.005209 
0.005437 
0.005674 
0.005918 
0.006170 
0.006429 
0.006697 
0.006973 
0.007257 
0.007550 
0.007851 
0.008160 
0.008478 
0.008804 
0.009140 
0.009483 
0.009836 
0.010197 
0.010567 
0.010946 
0.011334 
0.011730 
0.012135 
0.012549 
0.012972 
0.013403 
0.013843 
0.014292 
0.014749 
0.015214 
0.015688 
0.016170 
0.016659 
0.017157 
0.017663 
0.018176 
0.018697 
0.019225 
0.019761 
0.020303 
0.020853 
0.021409 
0.021971 
0.022539 
0.023114 
0.023694 
0.024280 
0.024871 
0.025468 
0.026069 
0.026674 
0.027284 
0.027898 
0.028516 
0.029137 
0.029761 
0.030388 
0.031018 
0.031650 
0.032284 
0.032920 
0.033557 
0.034196 
0.034835 
0.035475 
0.036114 
0.036754 
0.037394 
0.038032 
0.038670 
0.039307 
0.039941 
0.040574 
0.041205 
0.041834 
0.042459 
0.043082 
0.043701 
0.044316 
0.044928 
0.045536 
0.046139 
0.046737 
0.047330 
0.047919 
0.048501 
0.049079 
0.049650 
0.050215 
0.050773 
0.051325 
0.051870 
0.052408 
0.052938 
0.053461 
0.053976 
0.054484 
0.054983 
0.055474 
0.055957 
0.056430 
0.056895 
0.057351 
0.057798 
0.058236 
0.058664 
0.059082 
0.059491 
0.059890 
0.060279 
0.060657 
0.061026 
0.061384 
0.061731 
0.062068 
0.062394 
0.062709 
0.063014 
0.063307 
0.063590 
0.063861 
0.064121 
0.064369 
0.064607 
0.064832 
0.065047 
0.065249 
0.065440 
0.065620 
0.065787 
0.065943 
0.066087 
0.066219 
0.066339 
0.066447 
0.066544 
0.066628 
0.066700 
0.066761 
0.066809 
0.066845 
0.066869 
0.066881 
0.000000 
0.000000 
0.000000 
0.000000 
0.000000 
0.000000 
0.000000 
0.000000 
0.000000 
0.000000 
0.000000 
0.000000 
0.000000 
0.000000 
0.000000 
0.000000 
0.000000 
0.000000 
0.000000 
0.000000 
0.000000 
0.000000 
0.000000 
0.000000 
0.000000 
0.000001 
0.000001 
0.000001 
0.000001 
0.000001 
0.000001 
0.000001 
0.000001 
0.000001 
0.000001 
0.000001 
0.000001 
0.000002 
0.000002 
0.000002 
0.000002 
0.000002 
0.000003 
0.000003 
0.000003 
0.000003 
0.000004 
0.000004 
0.000004 
0.000005 
0.000005 
0.000006 
0.000006 
0.000007 
0.000007 
0.000008 
0.000009 
0.000009 
0.000010 
0.000011 
0.000012 
0.000013 
0.000014 
0.000015 
0.000017 
0.000018 
0.000020 
0.000021 
0.000023 
0.000025 
0.000027 
0.000029 
0.000032 
0.000034 
0.000037 
0.000040 
0.000043 
0.000046 
0.000050 
0.000054 
0.000058 
0.000063 
0.000068 
0.000073 
0.000079 
0.000085 
0.000091 
0.000098 
0.000106 
0.000114 
0.000122 
0.000131 
0.000141 
0.000151 
0.000162 
0.000174 
0.000186 
0.000200 
0.000214 
0.000229 
0.000245 
0.000262 
0.000281 
0.000300 
0.000321 
0.000342 
0.000366 
0.000390 
0.000416 
0.000444 
0.000473 
0.000504 
0.000537 
0.000572 
0.000608 
0.000647 
0.000688 
0.000732 
0.000777 
0.000825 
0.000876 
0.000930 
0.000986 
0.001045 
0.001108 
0.001174 
0.001243 
0.001315 
0.001391 
0.001471 
0.001555 
0.001643 
0.001736 
0.001832 
0.001934 
0.002040 
0.002150 
0.002266 
0.002387 
0.002514 
0.002646 
0.002783 
0.002927 
0.003076 
0.003232 
0.003395 
0.003563 
0.003739 
0.003922 
0.004111 
0.004308 
0.004513 
0.004725 
0.004945 
0.005173 
0.005408 
0.005653 
0.005905 
0.006167 
0.006437 
0.006715 
0.007003 
0.007300 
0.007607 
0.007922 
0.008247 
0.008582 
0.008927 
0.009281 
0.009645 
0.010019 
0.010404 
0.010798 
0.011202 
0.011617 
0.012041 
0.012476 
0.012922 
0.013377 
0.013843 
0.014318 
0.014804 
0.015300 
0.015806 
0.016322 
0.016848 
0.017383 
0.017929 
0.018484 
0.019048 
0.019621 
0.020204 
0.020796 
0.021396 
0.022006 
0.022623 
0.023249 
0.023883 
0.024525 
0.025174 
0.025830 
0.026494 
0.027164 
0.027841 
0.028525 
0.029214 
0.029909 
0.030609 
0.031315 
0.032025 
0.032740 
0.033458 
0.034181 
0.034907 
0.035637 
0.036369 
0.037103 
0.037840 
0.038579 
0.039319 
0.040060 
0.040802 
0.041544 
0.042286 
0.043028 
0.043770 
0.044510 
0.045249 
0.045986 
0.046722 
0.047455 
0.048185 
0.048912 
0.049636 
0.050356 
0.051072 
0.051784 
0.052491 
0.053193 
0.053890 
0.054581 
0.055267 
0.055946 
0.056619 
0.057285 
0.057944 
0.058596 
0.059240 
0.059876 
0.060504 
0.061124 
0.061736 
0.062339 
0.062932 
0.063517 
0.064092 
0.064657 
0.065213 
0.065758 
0.066293 
0.066818 
0.067332 
0.067836 
0.068328 
0.068809 
0.069279 
0.069738 
0.070185 
0.070620 
0.071043 
0.071455 
0.071854 
0.072241 
0.072616 
0.072978 
0.073328 
0.073665 
0.073989 
0.074300 
0.074599 
0.074884 
0.075156 
0.075415 
0.075661 
0.075894 
0.076113 
0.076319 
0.076511 
0.076690 
0.076855 
0.077007 
0.077144 
0.077269 
0.077379 
0.077476 
0.077559 
0.077628 
0.077683 
0.077725 
0.077753 
0.077766 
0.000000 
0.000000 
0.000000 
0.000000 
0.000000 
0.000000 
0.000000 
0.000000 
0.000000 
0.000000 
0.000000 
0.000000 
0.000000 
0.000000 
0.000000 
0.000000 
0.000000 
0.000000 
0.000000 
0.000000 
0.000000 
0.000000 
0.000000 
0.000001 
0.000001 
0.000001 
0.000001 
0.000001 
0.000001 
0.000001 
0.000001 
0.000001 
0.000001 
0.000001 
0.000001 
0.000002 
0.000002 
0.000002 
0.000002 
0.000002 
0.000002 
0.000003 
0.000003 
0.000003 
0.000004 
0.000004 
0.000004 
0.000005 
0.000005 
0.000005 
0.000006 
0.000006 
0.000007 
0.000008 
0.000008 
0.000009 
0.000010 
0.000011 
0.000012 
0.000013 
0.000014 
0.000015 
0.000016 
0.000018 
0.000019 
0.000021 
0.000023 
0.000025 
0.000027 
0.000029 
0.000031 
0.000034 
0.000037 
0.000040 
0.000043 
0.000047 
0.000050 
0.000054 
0.000059 
0.000063 
0.000068 
0.000074 
0.000079 
0.000086 
0.000092 
0.000099 
0.000107 
0.000115 
0.000124 
0.000133 
0.000143 
0.000153 
0.000165 
0.000177 
0.000190 
0.000203 
0.000218 
0.000234 
0.000250 
0.000268 
0.000287 
0.000307 
0.000328 
0.000351 
0.000375 
0.000400 
0.000427 
0.000456 
0.000486 
0.000519 
0.000553 
0.000589 
0.000627 
0.000668 
0.000711 
0.000756 
0.000804 
0.000854 
0.000907 
0.000964 
0.001023 
0.001085 
0.001151 
0.001220 
0.001293 
0.001369 
0.001450 
0.001534 
0.001623 
0.001716 
0.001814 
0.001917 
0.002024 
0.002137 
0.002254 
0.002378 
0.002506 
0.002641 
0.002782 
0.002929 
0.003082 
0.003242 
0.003409 
0.003583 
0.003764 
0.003952 
0.004149 
0.004352 
0.004564 
0.004784 
0.005013 
0.005250 
0.005496 
0.005751 
0.006015 
0.006288 
0.006571 
0.006864 
0.007166 
0.007479 
0.007802 
0.008135 
0.008479 
0.008833 
0.009198 
0.009574 
0.009961 
0.010359 
0.010768 
0.011189 
0.011620 
0.012064 
0.012519 
0.012985 
0.013463 
0.013953 
0.014454 
0.014967 
0.015491 
0.016028 
0.016575 
0.017134 
0.017705 
0.018287 
0.018880 
0.019484 
0.020100 
0.020726 
0.021363 
0.022011 
0.022669 
0.023338 
0.024016 
0.024705 
0.025403 
0.026110 
0.026827 
0.027553 
0.028287 
0.029030 
0.029781 
0.030540 
0.031307 
0.032080 
0.032861 
0.033648 
0.034441 
0.035241 
0.036046 
0.036856 
0.037671 
0.038490 
0.039314 
0.040141 
0.040971 
0.041805 
0.042641 
0.043479 
0.044319 
0.045161 
0.046003 
0.046846 
0.047689 
0.048532 
0.049375 
0.050216 
0.051056 
0.051895 
0.052731 
0.053564 
0.054395 
0.055222 
0.056046 
0.056866 
0.057681 
0.058492 
0.059297 
0.060097 
0.060891 
0.061679 
0.062460 
0.063235 
0.064002 
0.064762 
0.065514 
0.066259 
0.066994 
0.067721 
0.068439 
0.069148 
0.069847 
0.070537 
0.071216 
0.071885 
0.072544 
0.073192 
0.073828 
0.074454 
0.075068 
0.075671 
0.076261 
0.076840 
0.077406 
0.077960 
0.078502 
0.079030 
0.079546 
0.080048 
0.080537 
0.081013 
0.081476 
0.081924 
0.082359 
0.082780 
0.083187 
0.083580 
0.083958 
0.084322 
0.084672 
0.085007 
0.085327 
0.085633 
0.085923 
0.086199 
0.086460 
0.086706 
0.086937 
0.087153 
0.087354 
0.087539 
0.087709 
0.087864 
0.088003 
0.088127 
0.088235 
0.088328 
0.088406 
0.088468 
0.088515 
0.088546 
0.088561 
0.000000 
0.000000 
0.000000 
0.000000 
0.000000 
0.000000 
0.000000 
0.000000 
0.000000 
0.000000 
0.000000 
0.000000 
0.000000 
0.000000 
0.000000 
0.000000 
0.000000 
0.000000 
0.000000 
0.000000 
0.000000 
0.000000 
0.000001 
0.000001 
0.000001 
0.000001 