# vtk DataFile Version 3.0
results.vtk
ASCII
DATASET RECTILINEAR_GRID
DIMENSIONS 301 301 1
X_COORDINATES 301 double
0.000000 0.003333 0.006667 0.010000 0.013333 0.016667 0.020000 0.023333 0.026667 0.030000 0.033333 0.036667 0.040000 0.043333 0.046667 0.050000 0.053333 0.056667 0.060000 0.063333 0.066667 0.070000 0.073333 0.076667 0.080000 0.083333 0.086667 0.090000 0.093333 0.096667 0.100000 0.103333 0.106667 0.110000 0.113333 0.116667 0.120000 0.123333 0.126667 0.130000 0.133333 0.136667 0.140000 0.143333 0.146667 0.150000 0.153333 0.156667 0.160000 0.163333 0.166667 0.170000 0.173333 0.176667 0.180000 0.183333 0.186667 0.190000 0.193333 0.196667 0.200000 0.203333 0.206667 0.210000 0.213333 0.216667 0.220000 0.223333 0.226667 0.230000 0.233333 0.236667 0.240000 0.243333 0.246667 0.250000 0.253333 0.256667 0.260000 0.263333 0.266667 0.270000 0.273333 0.276667 0.280000 0.283333 0.286667 0.290000 0.293333 0.296667 0.300000 0.303333 0.306667 0.310000 0.313333 0.316667 0.320000 0.323333 0.326667 0.330000 0.333333 0.336667 0.340000 0.343333 0.346667 0.350000 0.353333 0.356667 0.360000 0.363333 0.366667 0.370000 0.373333 0.376667 0.380000 0.383333 0.386667 0.390000 0.393333 0.396667 0.400000 0.403333 0.406667 0.410000 0.413333 0.416667 0.420000 0.423333 0.426667 0.430000 0.433333 0.436667 0.440000 0.443333 0.446667 0.450000 0.453333 0.456667 0.460000 0.463333 0.466667 0.470000 0.473333 0.476667 0.480000 0.483333 0.486667 0.490000 0.493333 0.496667 0.500000 0.503333 0.506667 0.510000 0.513333 0.516667 0.520000 0.523333 0.526667 0.530000 0.533333 0.536667 0.540000 0.543333 0.546667 0.550000 0.553333 0.556667 0.560000 0.563333 0.566667 0.570000 0.573333 0.576667 0.580000 0.583333 0.586667 0.590000 0.593333 0.596667 0.600000 0.603333 0.606667 0.610000 0.613333 0.616667 0.620000 0.623333 0.626667 0.630000 0.633333 0.636667 0.640000 0.643333 0.646667 0.650000 0.653333 0.656667 0.660000 0.663333 0.666667 0.670000 0.673333 0.676667 0.680000 0.683333 0.686667 0.690000 0.693333 0.696667 0.700000 0.703333 0.706667 0.710000 0.713333 0.716667 0.720000 0.723333 0.726667 0.730000 0.733333 0.736667 0.740000 0.743333 0.746667 0.750000 0.753333 0.756667 0.760000 0.763333 0.766667 0.770000 0.773333 0.776667 0.780000 0.783333 0.786667 0.790000 0.793333 0.796667 0.800000 0.803333 0.806667 0.810000 0.813333 0.816667 0.820000 0.823333 0.826667 0.830000 0.833333 0.836667 0.840000 0.843333 0.846667 0.850000 0.853333 0.856667 0.860000 0.863333 0.866667 0.870000 0.873333 0.876667 0.880000 0.883333 0.886667 0.890000 0.893333 0.896667 0.900000 0.903333 0.906667 0.910000 0.913333 0.916667 0.920000 0.923333 0.926667 0.930000 0.933333 0.936667 0.940000 0.943333 0.946667 0.950000 0.953333 0.956667 0.960000 0.963333 0.966667 0.970000 0.973333 0.976667 0.980000 0.983333 0.986667 0.990000 0.993333 0.996667 1.000000 
Y_COORDINATES 301 double
0.000000 0.003333 0.006667 0.010000 0.013333 0.016667 0.020000 0.023333 0.026667 0.030000 0.033333 0.036667 0.040000 0.043333 0.046667 0.050000 0.053333 0.056667 0.060000 0.063333 0.066667 0.070000 0.073333 0.076667 0.080000 0.083333 0.086667 0.090000 0.093333 0.096667 0.100000 0.103333 0.106667 0.110000 0.113333 0.116667 0.120000 0.123333 0.126667 0.130000 0.133333 0.136667 0.140000 0.143333 0.146667 0.150000 0.153333 0.156667 0.160000 0.163333 0.166667 0.170000 0.173333 0.176667 0.180000 0.183333 0.186667 0.190000 0.193333 0.196667 0.200000 0.203333 0.206667 0.210000 0.213333 0.216667 0.220000 0.223333 0.226667 0.230000 0.233333 0.236667 0.240000 0.243333 0.246667 0.250000 0.253333 0.256667 0.260000 0.263333 0.266667 0.270000 0.273333 0.276667 0.280000 0.283333 0.286667 0.290000 0.293333 0.296667 0.300000 0.303333 0.306667 0.310000 0.313333 0.316667 0.320000 0.323333 0.326667 0.330000 0.333333 0.336667 0.340000 0.343333 0.346667 0.350000 0.353333 0.356667 0.360000 0.363333 0.366667 0.370000 0.373333 0.376667 0.380000 0.383333 0.386667 0.390000 0.393333 0.396667 0.400000 0.403333 0.406667 0.410000 0.413333 0.416667 0.420000 0.423333 0.426667 0.430000 0.433333 0.436667 0.440000 0.443333 0.446667 0.450000 0.453333 0.456667 0.460000 0.463333 0.466667 0.470000 0.473333 0.476667 0.480000 0.483333 0.486667 0.490000 0.493333 0.496667 0.500000 0.503333 0.506667 0.510000 0.513333 0.516667 0.520000 0.523333 0.526667 0.530000 0.533333 0.536667 0.540000 0.543333 0.546667 0.550000 0.553333 0.556667 0.560000 0.563333 0.566667 0.570000 0.573333 0.576667 0.580000 0.583333 0.586667 0.590000 0.593333 0.596667 0.600000 0.603333 0.606667 0.610000 0.613333 0.616667 0.620000 0.623333 0.626667 0.630000 0.633333 0.636667 0.640000 0.643333 0.646667 0.650000 0.653333 0.656667 0.660000 0.663333 0.666667 0.670000 0.673333 0.676667 0.680000 0.683333 0.686667 0.690000 0.693333 0.696667 0.700000 0.703333 0.706667 0.710000 0.713333 0.716667 0.720000 0.723333 0.726667 0.730000 0.733333 0.736667 0.740000 0.743333 0.746667 0.750000 0.753333 0.756667 0.760000 0.763333 0.766667 0.770000 0.773333 0.776667 0.780000 0.783333 0.786667 0.790000 0.793333 0.796667 0.800000 0.803333 0.806667 0.810000 0.813333 0.816667 0.820000 0.823333 0.826667 0.830000 0.833333 0.836667 0.840000 0.843333 0.846667 0.850000 0.853333 0.856667 0.860000 0.863333 0.866667 0.870000 0.873333 0.876667 0.880000 0.883333 0.886667 0.890000 0.893333 0.896667 0.900000 0.903333 0.906667 0.910000 0.913333 0.916667 0.920000 0.923333 0.926667 0.930000 0.933333 0.936667 0.940000 0.943333 0.946667 0.950000 0.953333 0.956667 0.960000 0.963333 0.966667 0.970000 0.973333 0.976667 0.980000 0.983333 0.986667 0.990000 0.993333 0.996667 1.000000 
Z_COORDINATES 1 double
0
POINT_DATA 90601 
FIELD FieldData 1 
Concentração 1 90601 double 
0.000000 
0.000000 
0.000000 
0.000000 
0.000000 
0.000000 
0.000000 
0.000000 
0.000000 
0.000000 
0.000000 
0.000000 
0.000000 
0.000000 
0.000000 
0.000000 
0.000000 
0.000000 
0.000000 
0.000000 
0.000000 
0.000000 
0.000000 
0.000000 
0.000000 
0.000000 
0.000000 
0.000000 
0.000000 
0.000000 
0.000000 
0.000000 
0.000000 
0.000000 
0.000000 
0.000000 
0.000000 
0.000000 
0.000000 
0.000000 
0.000000 
0.000000 
0.000000 
0.000000 
0.000000 
0.000000 
0.000000 
0.000000 
0.000000 
0.000000 
0.000000 
0.000000 
0.000000 
0.000000 
0.000000 
0.000000 
0.000000 
0.000000 
0.000000 
0.000000 
0.000001 
0.000001 
0.000001 
0.000001 
0.000001 
0.000001 
0.000001 
0.000001 
0.000001 
0.000001 
0.000001 
0.000001 
0.000001 
0.000002 
0.000002 
0.000002 
0.000002 
0.000002 
0.000002 
0.000002 
0.000003 
0.000003 
0.000003 
0.000003 
0.000004 
0.000004 
0.000004 
0.000005 
0.000005 
0.000005 
0.000006 
0.000006 
0.000007 
0.000007 
0.000008 
0.000008 
0.000009 
0.000010 
0.000010 
0.000011 
0.000012 
0.000013 
0.000014 
0.000015 
0.000016 
0.000017 
0.000018 
0.000019 
0.000020 
0.000022 
0.000023 
0.000025 
0.000027 
0.000028 
0.000030 
0.000032 
0.000035 
0.000037 
0.000039 
0.000042 
0.000044 
0.000047 
0.000050 
0.000053 
0.000057 
0.000060 
0.000064 
0.000068 
0.000072 
0.000077 
0.000081 
0.000086 
0.000091 
0.000097 
0.000102 
0.000108 
0.000114 
0.000121 
0.000128 
0.000135 
0.000142 
0.000150 
0.000159 
0.000167 
0.000176 
0.000186 
0.000196 
0.000206 
0.000217 
0.000228 
0.000240 
0.000252 
0.000265 
0.000278 
0.000292 
0.000306 
0.000321 
0.000337 
0.000353 
0.000370 
0.000387 
0.000406 
0.000424 
0.000444 
0.000464 
0.000485 
0.000506 
0.000529 
0.000552 
0.000576 
0.000600 
0.000626 
0.000652 
0.000679 
0.000707 
0.000736 
0.000766 
0.000796 
0.000827 
0.000860 
0.000893 
0.000927 
0.000962 
0.000998 
0.001034 
0.001072 
0.001111 
0.001150 
0.001191 
0.001232 
0.001274 
0.001318 
0.001362 
0.001407 
0.001453 
0.001500 
0.001548 
0.001597 
0.001646 
0.001697 
0.001748 
0.001801 
0.001854 
0.001908 
0.001962 
0.002018 
0.002075 
0.002132 
0.002190 
0.002248 
0.002308 
0.002368 
0.002429 
0.002490 
0.002552 
0.002615 
0.002678 
0.002742 
0.002806 
0.002871 
0.002936 
0.003002 
0.003068 
0.003134 
0.003201 
0.003268 
0.003336 
0.003403 
0.003471 
0.003539 
0.003607 
0.003675 
0.003744 
0.003812 
0.003880 
0.003949 
0.004017 
0.004085 
0.004153 
0.004221 
0.004288 
0.004356 
0.004423 
0.004489 
0.004556 
0.004622 
0.004687 
0.004752 
0.004817 
0.004881 
0.004944 
0.005007 
0.005069 
0.005130 
0.005191 
0.005251 
0.005310 
0.005368 
0.005426 
0.005482 
0.005538 
0.005592 
0.005646 
0.005699 
0.005751 
0.005801 
0.005851 
0.005899 
0.005947 
0.005993 
0.006038 
0.006081 
0.006124 
0.006165 
0.006205 
0.006244 
0.006281 
0.006317 
0.006352 
0.006385 
0.006417 
0.006448 
0.006477 
0.006504 
0.006530 
0.006555 
0.006578 
0.006600 
0.006620 
0.006639 
0.006656 
0.006672 
0.006686 
0.006698 
0.006709 
0.006719 
0.006727 
0.006733 
0.006738 
0.006741 
0.006742 
0.000000 
0.000000 
0.000000 
0.000000 
0.000000 
0.000000 
0.000000 
0.000000 
0.000000 
0.000000 
0.000000 
0.000000 
0.000000 
0.000000 
0.000000 
0.000000 
0.000000 
0.000000 
0.000000 
0.000000 
0.000000 
0.000000 
0.000000 
0.000000 
0.000000 
0.000000 
0.000000 
0.000000 
0.000000 
0.000000 
0.000000 
0.000000 
0.000000 
0.000000 
0.000000 
0.000000 
0.000000 
0.000000 
0.000000 
0.000000 
0.000000 
0.000000 
0.000000 
0.000000 
0.000000 
0.000000 
0.000000 
0.000000 
0.000000 
0.000000 
0.000000 
0.000000 
0.000001 
0.000001 
0.000001 
0.000001 
0.000001 
0.000001 
0.000001 
0.000001 
0.000001 
0.000001 
0.000001 
0.000001 
0.000001 
0.000002 
0.000002 
0.000002 
0.000002 
0.000002 
0.000002 
0.000003 
0.000003 
0.000003 
0.000003 
0.000004 
0.000004 
0.000004 
0.000005 
0.000005 
0.000005 
0.000006 
0.000006 
0.000007 
0.000007 
0.000008 
0.000009 
0.000009 
0.000010 
0.000011 
0.000012 
0.000012 
0.000013 
0.000014 
0.000015 
0.000017 
0.000018 
0.000019 
0.000021 
0.000022 
0.000024 
0.000025 
0.000027 
0.000029 
0.000031 
0.000034 
0.000036 
0.000038 
0.000041 
0.000044 
0.000047 
0.000050 
0.000054 
0.000057 
0.000061 
0.000065 
0.000069 
0.000074 
0.000079 
0.000084 
0.000089 
0.000095 
0.000101 
0.000107 
0.000114 
0.000121 
0.000129 
0.000137 
0.000145 
0.000154 
0.000163 
0.000173 
0.000183 
0.000194 
0.000205 
0.000217 
0.000230 
0.000243 
0.000257 
0.000271 
0.000286 
0.000302 
0.000319 
0.000336 
0.000354 
0.000373 
0.000393 
0.000414 
0.000436 
0.000458 
0.000482 
0.000506 
0.000532 
0.000559 
0.000587 
0.000616 
0.000646 
0.000677 
0.000709 
0.000743 
0.000778 
0.000815 
0.000852 
0.000891 
0.000932 
0.000974 
0.001017 
0.001062 
0.001108 
0.001156 
0.001206 
0.001257 
0.001309 
0.001364 
0.001420 
0.001477 
0.001537 
0.001598 
0.001661 
0.001726 
0.001792 
0.001860 
0.001930 
0.002002 
0.002076 
0.002152 
0.002229 
0.002308 
0.002389 
0.002472 
0.002557 
0.002644 
0.002733 
0.002823 
0.002915 
0.003009 
0.003105 
0.003203 
0.003303 
0.003404 
0.003507 
0.003612 
0.003718 
0.003826 
0.003936 
0.004048 
0.004160 
0.004275 
0.004391 
0.004509 
0.004628 
0.004748 
0.004870 
0.004993 
0.005117 
0.005242 
0.005369 
0.005496 
0.005625 
0.005755 
0.005885 
0.006017 
0.006149 
0.006282 
0.006416 
0.006550 
0.006685 
0.006820 
0.006956 
0.007092 
0.007228 
0.007365 
0.007501 
0.007638 
0.007775 
0.007911 
0.008048 
0.008184 
0.008320 
0.008455 
0.008590 
0.008725 
0.008859 
0.008992 
0.009125 
0.009256 
0.009387 
0.009517 
0.009646 
0.009774 
0.009900 
0.010025 
0.010149 
0.010272 
0.010393 
0.010513 
0.010631 
0.010748 
0.010862 
0.010975 
0.011086 
0.011196 
0.011303 
0.011408 
0.011512 
0.011613 
0.011712 
0.011808 
0.011903 
0.011995 
0.012085 
0.012172 
0.012257 
0.012339 
0.012419 
0.012496 
0.012571 
0.012643 
0.012712 
0.012779 
0.012842 
0.012903 
0.012961 
0.013016 
0.013068 
0.013118 
0.013164 
0.013207 
0.013248 
0.013285 
0.013319 
0.013350 
0.013378 
0.013404 
0.013425 
0.013444 
0.013460 
0.013473 
0.013482 
0.013488 
0.013491 
0.000000 
0.000000 
0.000000 
0.000000 
0.000000 
0.000000 
0.000000 
0.000000 
0.000000 
0.000000 
0.000000 
0.000000 
0.000000 
0.000000 
0.000000 
0.000000 
0.000000 
0.000000 
0.000000 
0.000000 
0.000000 
0.000000 
0.000000 
0.000000 
0.000000 
0.000000 
0.000000 
0.000000 
0.000000 
0.000000 
0.000000 
0.000000 
0.000000 
0.000000 
0.000000 
0.000000 
0.000000 
0.000000 
0.000000 
0.000000 
0.000000 
0.000000 
0.000000 
0.000000 
0.000000 
0.000000 
0.000000 
0.000001 
0.000001 
0.000001 
0.000001 
0.000001 
0.000001 
0.000001 
0.000001 
0.000001 
0.000001 
0.000001 
0.000001 
0.000001 
0.000002 
0.000002 
0.000002 
0.000002 
0.000002 
0.000002 
0.000003 
0.000003 
0.000003 
0.000003 
0.000004 
0.000004 
0.000004 
0.000005 
0.000005 
0.000005 
0.000006 
0.000006 
0.000007 
0.000008 
0.000008 
0.000009 
0.000010 
0.000010 
0.000011 
0.000012 
0.000013 
0.000014 
0.000015 
0.000016 
0.000017 
0.000019 
0.000020 
0.000022 
0.000023 
0.000025 
0.000027 
0.000029 
0.000031 
0.000033 
0.000036 
0.000039 
0.000041 
0.000044 
0.000047 
0.000051 
0.000054 
0.000058 
0.000062 
0.000066 
0.000071 
0.000076 
0.000081 
0.000087 
0.000092 
0.000098 
0.000105 
0.000112 
0.000119 
0.000127 
0.000135 
0.000144 
0.000153 
0.000163 
0.000173 
0.000184 
0.000195 
0.000207 
0.000219 
0.000233 
0.000247 
0.000261 
0.000277 
0.000293 
0.000310 
0.000328 
0.000347 
0.000367 
0.000388 
0.000410 
0.000433 
0.000457 
0.000482 
0.000508 
0.000535 
0.000564 
0.000594 
0.000626 
0.000658 
0.000693 
0.000728 
0.000765 
0.000804 
0.000844 
0.000886 
0.000930 
0.000975 
0.001023 
0.001072 
0.001123 
0.001175 
0.001230 
0.001287 
0.001346 
0.001407 
0.001470 
0.001536 
0.001603 
0.001673 
0.001746 
0.001820 
0.001897 
0.001977 
0.002059 
0.002143 
0.002230 
0.002320 
0.002412 
0.002507 
0.002604 
0.002704 
0.002807 
0.002913 
0.003021 
0.003132 
0.003246 
0.003363 
0.003482 
0.003605 
0.003730 
0.003857 
0.003988 
0.004121 
0.004257 
0.004396 
0.004538 
0.004682 
0.004829 
0.004979 
0.005132 
0.005287 
0.005444 
0.005604 
0.005767 
0.005932 
0.006100 
0.006270 
0.006442 
0.006616 
0.006793 
0.006972 
0.007153 
0.007335 
0.007520 
0.007707 
0.007895 
0.008085 
0.008277 
0.008470 
0.008665 
0.008861 
0.009059 
0.009257 
0.009457 
0.009658 
0.009859 
0.010061 
0.010264 
0.010468 
0.010672 
0.010877 
0.011082 
0.011286 
0.011492 
0.011696 
0.011901 
0.012106 
0.012310 
0.012514 
0.012717 
0.012920 
0.013121 
0.013322 
0.013522 
0.013720 
0.013918 
0.014114 
0.014308 
0.014501 
0.014693 
0.014882 
0.015070 
0.015256 
0.015439 
0.015621 
0.015800 
0.015977 
0.016151 
0.016323 
0.016492 
0.016658 
0.016822 
0.016983 
0.017140 
0.017295 
0.017446 
0.017594 
0.017739 
0.017880 
0.018018 
0.018152 
0.018283 
0.018410 
0.018533 
0.018653 
0.018768 
0.018880 
0.018987 
0.019091 
0.019190 
0.019285 
0.019376 
0.019463 
0.019545 
0.019623 
0.019697 
0.019766 
0.019831 
0.019891 
0.019947 
0.019998 
0.020045 
0.020087 
0.020124 
0.020157 
0.020185 
0.020209 
0.020228 
0.020242 
0.020251 
0.020256 
0.000000 
0.000000 
0.000000 
0.000000 
0.000000 
0.000000 
0.000000 
0.000000 
0.000000 
0.000000 
0.000000 
0.000000 
0.000000 
0.000000 
0.000000 
0.000000 
0.000000 
0.000000 
0.000000 
0.000000 
0.000000 
0.000000 
0.000000 
0.000000 
0.000000 
0.000000 
0.000000 
0.000000 
0.000000 
0.000000 
0.000000 
0.000000 
0.000000 
0.000000 
0.000000 
0.000000 
0.000000 
0.000000 
0.000000 
0.000000 
0.000000 
0.000000 
0.000000 
0.000000 
0.000001 
0.000001 
0.000001 
0.000001 
0.000001 
0.000001 
0.000001 
0.000001 
0.000001 
0.000001 
0.000001 
0.000001 
0.000002 
0.000002 
0.000002 
0.000002 
0.000002 
0.000002 
0.000003 
0.000003 
0.000003 
0.000003 
0.000004 
0.000004 
0.000004 
0.000005 
0.000005 
0.000005 
0.000006 
0.000006 
0.000007 
0.000007 
0.000008 
0.000009 
0.000009 
0.000010 
0.000011 
0.000012 
0.000013 
0.000014 
0.000015 
0.000016 
0.000017 
0.000019 
0.000020 
0.000022 
0.000024 
0.000025 
0.000027 
0.000029 
0.000032 
0.000034 
0.000036 
0.000039 
0.000042 
0.000045 
0.000048 
0.000052 
0.000056 
0.000060 
0.000064 
0.000068 
0.000073 
0.000078 
0.000084 
0.000090 
0.000096 
0.000102 
0.000109 
0.000117 
0.000124 
0.000133 
0.000142 
0.000151 
0.000161 
0.000171 
0.000182 
0.000194 
0.000206 
0.000219 
0.000233 
0.000247 
0.000263 
0.000279 
0.000296 
0.000314 
0.000333 
0.000353 
0.000373 
0.000395 
0.000418 
0.000443 
0.000468 
0.000495 
0.000523 
0.000552 
0.000583 
0.000615 
0.000649 
0.000685 
0.000722 
0.000760 
0.000801 
0.000843 
0.000887 
0.000933 
0.000981 
0.001031 
0.001083 
0.001137 
0.001194 
0.001252 
0.001314 
0.001377 
0.001443 
0.001512 
0.001583 
0.001656 
0.001733 
0.001812 
0.001894 
0.001979 
0.002067 
0.002158 
0.002252 
0.002349 
0.002449 
0.002553 
0.002660 
0.002770 
0.002883 
0.003000 
0.003120 
0.003244 
0.003371 
0.003502 
0.003637 
0.003775 
0.003916 
0.004062 
0.004211 
0.004364 
0.004520 
0.004680 
0.004844 
0.005012 
0.005183 
0.005358 
0.005537 
0.005719 
0.005906 
0.006095 
0.006289 
0.006486 
0.006686 
0.006891 
0.007098 
0.007309 
0.007524 
0.007741 
0.007962 
0.008186 
0.008414 
0.008644 
0.008877 
0.009114 
0.009353 
0.009595 
0.009839 
0.010086 
0.010336 
0.010588 
0.010842 
0.011098 
0.011356 
0.011616 
0.011878 
0.012142 
0.012407 
0.012673 
0.012941 
0.013210 
0.013480 
0.013751 
0.014023 
0.014295 
0.014568 
0.014841 
0.015114 
0.015388 
0.015661 
0.015934 
0.016207 
0.016479 
0.016750 
0.017021 
0.017291 
0.017560 
0.017827 
0.018093 
0.018358 
0.018620 
0.018881 
0.019140 
0.019397 
0.019652 
0.019904 
0.020154 
0.020401 
0.020645 
0.020887 
0.021125 
0.021360 
0.021592 
0.021821 
0.022046 
0.022267 
0.022484 
0.022698 
0.022907 
0.023113 
0.023314 
0.023511 
0.023703 
0.023891 
0.024074 
0.024253 
0.024426 
0.024595 
0.024759 
0.024917 
0.025070 
0.025219 
0.025361 
0.025499 
0.025631 
0.025757 
0.025878 
0.025993 
0.026102 
0.026206 
0.026304 
0.026396 
0.026482 
0.026562 
0.026636 
0.026704 
0.026766 
0.026822 
0.026871 
0.026915 
0.026952 
0.026983 
0.027008 
0.027027 
0.027039 
0.027046 
0.000000 
0.000000 
0.000000 
0.000000 
0.000000 
0.000000 
0.000000 
0.000000 
0.000000 
0.000000 
0.000000 
0.000000 
0.000000 
0.000000 
0.000000 
0.000000 
0.000000 
0.000000 
0.000000 
0.000000 
0.000000 
0.000000 
0.000000 
0.000000 
0.000000 
0.000000 
0.000000 
0.000000 
0.000000 
0.000000 
0.000000 
0.000000 
0.000000 
0.000000 
0.000000 
0.000000 
0.000000 
0.000000 
0.000000 
0.000000 
0.000000 
0.000001 
0.000001 
0.000001 
0.000001 
0.000001 
0.000001 
0.000001 
0.000001 
0.000001 
0.000001 
0.000001 
0.000001 
0.000001 
0.000002 
0.000002 
0.000002 
0.000002 
0.000002 
0.000002 
0.000003 
0.000003 
0.000003 
0.000004 
0.000004 
0.000004 
0.000005 
0.000005 
0.000005 
0.000006 
0.000006 
0.000007 
0.000007 
0.000008 
0.000009 
0.000009 
0.000010 
0.000011 
0.000012 
0.000013 
0.000014 
0.000015 
0.000016 
0.000018 
0.000019 
0.000021 
0.000022 
0.000024 
0.000026 
0.000028 
0.000030 
0.000032 
0.000035 
0.000037 
0.000040 
0.000043 
0.000046 
0.000050 
0.000053 
0.000057 
0.000061 
0.000066 
0.000071 
0.000076 
0.000081 
0.000087 
0.000093 
0.000099 
0.000106 
0.000114 
0.000122 
0.000130 
0.000139 
0.000148 
0.000158 
0.000168 
0.000180 
0.000191 
0.000204 
0.000217 
0.000231 
0.000246 
0.000261 
0.000278 
0.000295 
0.000314 
0.000333 
0.000354 
0.000375 
0.000398 
0.000422 
0.000447 
0.000473 
0.000501 
0.000530 
0.000561 
0.000593 
0.000627 
0.000663 
0.000700 
0.000739 
0.000780 
0.000823 
0.000867 
0.000914 
0.000963 
0.001014 
0.001068 
0.001123 
0.001182 
0.001242 
0.001306 
0.001371 
0.001440 
0.001511 
0.001586 
0.001663 
0.001743 
0.001827 
0.001913 
0.002003 
0.002096 
0.002193 
0.002293 
0.002397 
0.002504 
0.002615 
0.002730 
0.002849 
0.002971 
0.003098 
0.003228 
0.003363 
0.003502 
0.003645 
0.003793 
0.003944 
0.004100 
0.004261 
0.004426 
0.004595 
0.004769 
0.004948 
0.005131 
0.005319 
0.005511 
0.005709 
0.005910 
0.006117 
0.006328 
0.006543 
0.006764 
0.006989 
0.007218 
0.007453 
0.007691 
0.007935 
0.008182 
0.008434 
0.008691 
0.008952 
0.009217 
0.009487 
0.009760 
0.010038 
0.010319 
0.010605 
0.010894 
0.011187 
0.011483 
0.011783 
0.012087 
0.012393 
0.012703 
0.013016 
0.013332 
0.013650 
0.013972 
0.014295 
0.014621 
0.014949 
0.015279 
0.015611 
0.015945 
0.016280 
0.016617 
0.016955 
0.017294 
0.017634 
0.017975 
0.018316 
0.018658 
0.018999 
0.019341 
0.019683 
0.020024 
0.020365 
0.020705 
0.021044 
0.021382 
0.021719 
0.022055 
0.022389 
0.022721 
0.023051 
0.023379 
0.023705 
0.024028 
0.024348 
0.024666 
0.024981 
0.025292 
0.025600 
0.025905 
0.026206 
0.026503 
0.026796 
0.027085 
0.027370 
0.027650 
0.027926 
0.028197 
0.028463 
0.028724 
0.028979 
0.029230 
0.029475 
0.029714 
0.029948 
0.030176 
0.030398 
0.030614 
0.030824 
0.031028 
0.031225 
0.031416 
0.031600 
0.031778 
0.031949 
0.032113 
0.032270 
0.032421 
0.032564 
0.032700 
0.032829 
0.032950 
0.033065 
0.033171 
0.033271 
0.033363 
0.033448 
0.033525 
0.033594 
0.033656 
0.033710 
0.033756 
0.033795 
0.033826 
0.033849 
0.033865 
0.033872 
0.000000 
0.000000 
0.000000 
0.000000 
0.000000 
0.000000 
0.000000 
0.000000 
0.000000 
0.000000 
0.000000 
0.000000 
0.000000 
0.000000 
0.000000 
0.000000 
0.000000 
0.000000 
0.000000 
0.000000 
0.000000 
0.000000 
0.000000 
0.000000 
0.000000 
0.000000 
0.000000 
0.000000 
0.000000 
0.000000 
0.000000 
0.000000 
0.000000 
0.000000 
0.000000 
0.000000 
0.000000 
0.000000 
0.000000 
0.000001 
0.000001 
0.000001 
0.000001 
0.000001 
0.000001 
0.000001 
0.000001 
0.000001 
0.000001 
0.000001 
0.000001 
0.000002 
0.000002 
0.000002 
0.000002 
0.000002 
0.000002 
0.000003 
0.000003 
0.000003 
0.000003 
0.000004 
0.000004 
0.000004 
0.000005 
0.000005 
0.000006 
0.000006 
0.000007 
0.000007 
0.000008 
0.000008 
0.000009 
0.000010 
0.000011 
0.000012 
0.000012 
0.000013 
0.000015 
0.000016 
0.000017 
0.000018 
0.000020 
0.000022 
0.000023 
0.000025 
0.000027 
0.000029 
0.000031 
0.000034 
0.000037 
0.000039 
0.000042 
0.000046 
0.000049 
0.000053 
0.000057 
0.000061 
0.000065 
0.000070 
0.000075 
0.000081 
0.000086 
0.000093 
0.000099 
0.000106 
0.000114 
0.000122 
0.000130 
0.000139 
0.000149 
0.000159 
0.000169 
0.000181 
0.000193 
0.000206 
0.000219 
0.000234 
0.000249 
0.000265 
0.000282 
0.000300 
0.000319 
0.000339 
0.000361 
0.000383 
0.000407 
0.000432 
0.000458 
0.000486 
0.000515 
0.000546 
0.000578 
0.000612 
0.000647 
0.000685 
0.000724 
0.000765 
0.000809 
0.000854 
0.000902 
0.000951 
0.001003 
0.001058 
0.001115 
0.001175 
0.001237 
0.001302 
0.001370 
0.001441 
0.001515 
0.001592 
0.001672 
0.001755 
0.001842 
0.001933 
0.002027 
0.002124 
0.002226 
0.002331 
0.002440 
0.002554 
0.002671 
0.002793 
0.002919 
0.003049 
0.003184 
0.003324 
0.003468 
0.003617 
0.003770 
0.003929 
0.004093 
0.004261 
0.004435 
0.004614 
0.004798 
0.004987 
0.005182 
0.005382 
0.005588 
0.005798 
0.006015 
0.006237 
0.006464 
0.006698 
0.006936 
0.007181 
0.007430 
0.007686 
0.007947 
0.008214 
0.008486 
0.008764 
0.009047 
0.009336 
0.009630 
0.009929 
0.010234 
0.010544 
0.010859 
0.011179 
0.011505 
0.011835 
0.012170 
0.012510 
0.012854 
0.013203 
0.013556 
0.013914 
0.014276 
0.014642 
0.015011 
0.015385 
0.015761 
0.016142 
0.016525 
0.016912 
0.017302 
0.017694 
0.018089 
0.018486 
0.018885 
0.019287 
0.019690 
0.020095 
0.020501 
0.020908 
0.021317 
0.021726 
0.022136 
0.022546 
0.022956 
0.023367 
0.023777 
0.024186 
0.024595 
0.025003 
0.025410 
0.025816 
0.026220 
0.026622 
0.027022 
0.027420 
0.027815 
0.028208 
0.028598 
0.028986 
0.029369 
0.029750 
0.030126 
0.030499 
0.030868 
0.031232 
0.031593 
0.031948 
0.032299 
0.032644 
0.032985 
0.033320 
0.033649 
0.033973 
0.034291 
0.034602 
0.034908 
0.035207 
0.035500 
0.035786 
0.036065 
0.036338 
0.036603 
0.036861 
0.037111 
0.037354 
0.037590 
0.037818 
0.038038 
0.038250 
0.038454 
0.038649 
0.038837 
0.039016 
0.039187 
0.039349 
0.039503 
0.039648 
0.039784 
0.039912 
0.040031 
0.040140 
0.040241 
0.040333 
0.040416 
0.040489 
0.040554 
0.040609 
0.040655 
0.040692 
0.040720 
0.040738 
0.040748 
0.000000 
0.000000 
0.000000 
0.000000 
0.000000 
0.000000 
0.000000 
0.000000 
0.000000 
0.000000 
0.000000 
0.000000 
0.000000 
0.000000 
0.000000 
0.000000 
0.000000 
0.000000 
0.000000 
0.000000 
0.000000 
0.000000 
0.000000 
0.000000 
0.000000 
0.000000 
0.000000 
0.000000 
0.000000 
0.000000 
0.000000 
0.000000 
0.000000 
0.000000 
0.000000 
0.000000 
0.000000 
0.000001 
0.000001 
0.000001 
0.000001 
0.000001 
0.000001 
0.000001 
0.000001 
0.000001 
0.000001 
0.000001 
0.000001 
0.000002 
0.000002 
0.000002 
0.000002 
0.000002 
0.000002 
0.000003 
0.000003 
0.000003 
0.000003 
0.000004 
0.000004 
0.000004 
0.000005 
0.000005 
0.000006 
0.000006 
0.000007 
0.000007 
0.000008 
0.000008 
0.000009 
0.000010 
0.000011 
0.000012 
0.000013 
0.000014 
0.000015 
0.000016 
0.000017 
0.000019 
0.000020 
0.000022 
0.000024 
0.000026 
0.000028 
0.000030 
0.000032 
0.000035 
0.000038 
0.000040 
0.000044 
0.000047 
0.000050 
0.000054 
0.000058 
0.000063 
0.000067 
0.000072 
0.000078 
0.000083 
0.000090 
0.000096 
0.000103 
0.000110 
0.000118 
0.000126 
0.000135 
0.000145 
0.000155 
0.000166 
0.000177 
0.000189 
0.000202 
0.000215 
0.000230 
0.000245 
0.000261 
0.000278 
0.000297 
0.000316 
0.000336 
0.000357 
0.000380 
0.000404 
0.000429 
0.000456 
0.000484 
0.000514 
0.000545 
0.000578 
0.000613 
0.000649 
0.000688 
0.000728 
0.000770 
0.000815 
0.000862 
0.000911 
0.000962 
0.001016 
0.001072 
0.001132 
0.001193 
0.001258 
0.001326 
0.001397 
0.001471 
0.001548 
0.001629 
0.001713 
0.001800 
0.001892 
0.001987 
0.002086 
0.002189 
0.002296 
0.002408 
0.002523 
0.002644 
0.002768 
0.002898 
0.003032 
0.003171 
0.003315 
0.003465 
0.003619 
0.003779 
0.003944 
0.004114 
0.004291 
0.004472 
0.004660 
0.004853 
0.005053 
0.005258 
0.005470 
0.005687 
0.005911 
0.006141 
0.006377 
0.006620 
0.006869 
0.007124 
0.007386 
0.007655 
0.007930 
0.008211 
0.008499 
0.008794 
0.009095 
0.009403 
0.009717 
0.010037 
0.010365 
0.010698 
0.011038 
0.011384 
0.011736 
0.012095 
0.012459 
0.012830 
0.013207 
0.013589 
0.013977 
0.014371 
0.014770 
0.015174 
0.015584 
0.015999 
0.016418 
0.016843 
0.017272 
0.017705 
0.018143 
0.018585 
0.019030 
0.019480 
0.019932 
0.020389 
0.020848 
0.021310 
0.021775 
0.022242 
0.022712 
0.023183 
0.023657 
0.024132 
0.024608 
0.025085 
0.025563 
0.026042 
0.026521 
0.027000 
0.027479 
0.027957 
0.028435 
0.028912 
0.029388 
0.029863 
0.030335 
0.030806 
0.031275 
0.031741 
0.032205 
0.032665 
0.033123 
0.033577 
0.034028 
0.034474 
0.034917 
0.035355 
0.035789 
0.036218 
0.036642 
0.037060 
0.037474 
0.037881 
0.038283 
0.038678 
0.039067 
0.039450 
0.039826 
0.040195 
0.040557 
0.040912 
0.041260 
0.041599 
0.041931 
0.042255 
0.042571 
0.042879 
0.043178 
0.043469 
0.043751 
0.044024 
0.044288 
0.044543 
0.044789 
0.045025 
0.045252 
0.045469 
0.045677 
0.045875 
0.046063 
0.046241 
0.046409 
0.046567 
0.046715 
0.046852 
0.046980 
0.047096 
0.047203 
0.047298 
0.047384 
0.047458 
0.047523 
0.047576 
0.047619 
0.047651 
0.047672 
0.047683 
0.000000 
0.000000 
0.000000 
0.000000 
0.000000 
0.000000 
0.000000 
0.000000 
0.000000 
0.000000 
0.000000 
0.000000 
0.000000 
0.000000 
0.000000 
0.000000 
0.000000 
0.000000 
0.000000 
0.000000 
0.000000 
0.000000 
0.000000 
0.000000 
0.000000 
0.000000 
0.000000 
0.000000 
0.000000 
0.000000 
0.000000 
0.000000 
0.000000 
0.000000 
0.000000 
0.000000 
0.000001 
0.000001 
0.000001 
0.000001 
0.000001 
0.000001 
0.000001 
0.000001 
0.000001 
0.000001 
0.000001 
0.000001 
0.000002 
0.000002 
0.000002 
0.000002 
0.000002 
0.000003 
0.000003 
0.000003 
0.000003 
0.000004 
0.000004 
0.000004 
0.000005 
0.000005 
0.000006 
0.000006 
0.000007 
0.000007 
0.000008 
0.000008 
0.000009 
0.000010 
0.000011 
0.000012 
0.000013 
0.000014 
0.000015 
0.000016 
0.000017 
0.000019 
0.000020 
0.000022 
0.000024 
0.000026 
0.000028 
0.000030 
0.000032 
0.000035 
0.000038 
0.000041 
0.000044 
0.000047 
0.000051 
0.000055 
0.000059 
0.000064 
0.000068 
0.000073 
0.000079 
0.000085 
0.000091 
0.000098 
0.000105 
0.000112 
0.000120 
0.000129 
0.000138 
0.000148 
0.000158 
0.000170 
0.000181 
0.000194 
0.000207 
0.000221 
0.000236 
0.000252 
0.000269 
0.000287 
0.000306 
0.000326 
0.000347 
0.000369 
0.000393 
0.000418 
0.000445 
0.000473 
0.000502 
0.000533 
0.000566 
0.000601 
0.000638 
0.000676 
0.000716 
0.000759 
0.000804 
0.000851 
0.000900 
0.000952 
0.001007 
0.001064 
0.001124 
0.001187 
0.001253 
0.001322 
0.001394 
0.001470 
0.001549 
0.001631 
0.001717 
0.001807 
0.001901 
0.001999 
0.002101 
0.002208 
0.002319 
0.002434 
0.002554 
0.002679 
0.002809 
0.002943 
0.003083 
0.003228 
0.003379 
0.003535 
0.003697 
0.003865 
0.004038 
0.004218 
0.004403 
0.004595 
0.004793 
0.004998 
0.005209 
0.005427 
0.005651 
0.005882 
0.006121 
0.006366 
0.006618 
0.006878 
0.007144 
0.007418 
0.007699 
0.007988 
0.008284 
0.008587 
0.008898 
0.009216 
0.009542 
0.009875 
0.010216 
0.010564 
0.010919 
0.011282 
0.011653 
0.012031 
0.012416 
0.012808 
0.013208 
0.013614 
0.014028 
0.014448 
0.014876 
0.015310 
0.015750 
0.016198 
0.016651 
0.017111 
0.017576 
0.018048 
0.018525 
0.019008 
0.019496 
0.019989 
0.020488 
0.020991 
0.021498 
0.022010 
0.022526 
0.023046 
0.023570 
0.024097 
0.024627 
0.025160 
0.025696 
0.026234 
0.026775 
0.027317 
0.027861 
0.028407 
0.028953 
0.029500 
0.030048 
0.030596 
0.031144 
0.031692 
0.032239 
0.032785 
0.033330 
0.033874 
0.034416 
0.034956 
0.035493 
0.036028 
0.036560 
0.037089 
0.037615 
0.038137 
0.038655 
0.039168 
0.039678 
0.040182 
0.040681 
0.041175 
0.041664 
0.042147 
0.042623 
0.043094 
0.043557 
0.044014 
0.044464 
0.044907 
0.045342 
0.045770 
0.046190 
0.046601 
0.047005 
0.047399 
0.047786 
0.048163 
0.048531 
0.048890 
0.049239 
0.049579 
0.049909 
0.050229 
0.050539 
0.050839 
0.051128 
0.051407 
0.051675 
0.051933 
0.052180 
0.052415 
0.052640 
0.052853 
0.053055 
0.053246 
0.053425 
0.053592 
0.053748 
0.053892 
0.054025 
0.054145 
0.054254 
0.054351 
0.054435 
0.054508 
0.054569 
0.054617 
0.054654 
0.054678 
0.054690 
0.000000 
0.000000 
0.000000 
0.000000 
0.000000 
0.000000 
0.000000 
0.000000 
0.000000 
0.000000 
0.000000 
0.000000 
0.000000 
0.000000 
0.000000 
0.000000 
0.000000 
0.000000 
0.000000 
0.000000 
0.000000 
0.000000 
0.000000 
0.000000 
0.000000 
0.000000 