# vtk DataFile Version 3.0
results.vtk
ASCII
DATASET RECTILINEAR_GRID
DIMENSIONS 301 301 1
X_COORDINATES 301 double
0.000000 0.003333 0.006667 0.010000 0.013333 0.016667 0.020000 0.023333 0.026667 0.030000 0.033333 0.036667 0.040000 0.043333 0.046667 0.050000 0.053333 0.056667 0.060000 0.063333 0.066667 0.070000 0.073333 0.076667 0.080000 0.083333 0.086667 0.090000 0.093333 0.096667 0.100000 0.103333 0.106667 0.110000 0.113333 0.116667 0.120000 0.123333 0.126667 0.130000 0.133333 0.136667 0.140000 0.143333 0.146667 0.150000 0.153333 0.156667 0.160000 0.163333 0.166667 0.170000 0.173333 0.176667 0.180000 0.183333 0.186667 0.190000 0.193333 0.196667 0.200000 0.203333 0.206667 0.210000 0.213333 0.216667 0.220000 0.223333 0.226667 0.230000 0.233333 0.236667 0.240000 0.243333 0.246667 0.250000 0.253333 0.256667 0.260000 0.263333 0.266667 0.270000 0.273333 0.276667 0.280000 0.283333 0.286667 0.290000 0.293333 0.296667 0.300000 0.303333 0.306667 0.310000 0.313333 0.316667 0.320000 0.323333 0.326667 0.330000 0.333333 0.336667 0.340000 0.343333 0.346667 0.350000 0.353333 0.356667 0.360000 0.363333 0.366667 0.370000 0.373333 0.376667 0.380000 0.383333 0.386667 0.390000 0.393333 0.396667 0.400000 0.403333 0.406667 0.410000 0.413333 0.416667 0.420000 0.423333 0.426667 0.430000 0.433333 0.436667 0.440000 0.443333 0.446667 0.450000 0.453333 0.456667 0.460000 0.463333 0.466667 0.470000 0.473333 0.476667 0.480000 0.483333 0.486667 0.490000 0.493333 0.496667 0.500000 0.503333 0.506667 0.510000 0.513333 0.516667 0.520000 0.523333 0.526667 0.530000 0.533333 0.536667 0.540000 0.543333 0.546667 0.550000 0.553333 0.556667 0.560000 0.563333 0.566667 0.570000 0.573333 0.576667 0.580000 0.583333 0.586667 0.590000 0.593333 0.596667 0.600000 0.603333 0.606667 0.610000 0.613333 0.616667 0.620000 0.623333 0.626667 0.630000 0.633333 0.636667 0.640000 0.643333 0.646667 0.650000 0.653333 0.656667 0.660000 0.663333 0.666667 0.670000 0.673333 0.676667 0.680000 0.683333 0.686667 0.690000 0.693333 0.696667 0.700000 0.703333 0.706667 0.710000 0.713333 0.716667 0.720000 0.723333 0.726667 0.730000 0.733333 0.736667 0.740000 0.743333 0.746667 0.750000 0.753333 0.756667 0.760000 0.763333 0.766667 0.770000 0.773333 0.776667 0.780000 0.783333 0.786667 0.790000 0.793333 0.796667 0.800000 0.803333 0.806667 0.810000 0.813333 0.816667 0.820000 0.823333 0.826667 0.830000 0.833333 0.836667 0.840000 0.843333 0.846667 0.850000 0.853333 0.856667 0.860000 0.863333 0.866667 0.870000 0.873333 0.876667 0.880000 0.883333 0.886667 0.890000 0.893333 0.896667 0.900000 0.903333 0.906667 0.910000 0.913333 0.916667 0.920000 0.923333 0.926667 0.930000 0.933333 0.936667 0.940000 0.943333 0.946667 0.950000 0.953333 0.956667 0.960000 0.963333 0.966667 0.970000 0.973333 0.976667 0.980000 0.983333 0.986667 0.990000 0.993333 0.996667 1.000000 
Y_COORDINATES 301 double
0.000000 0.003333 0.006667 0.010000 0.013333 0.016667 0.020000 0.023333 0.026667 0.030000 0.033333 0.036667 0.040000 0.043333 0.046667 0.050000 0.053333 0.056667 0.060000 0.063333 0.066667 0.070000 0.073333 0.076667 0.080000 0.083333 0.086667 0.090000 0.093333 0.096667 0.100000 0.103333 0.106667 0.110000 0.113333 0.116667 0.120000 0.123333 0.126667 0.130000 0.133333 0.136667 0.140000 0.143333 0.146667 0.150000 0.153333 0.156667 0.160000 0.163333 0.166667 0.170000 0.173333 0.176667 0.180000 0.183333 0.186667 0.190000 0.193333 0.196667 0.200000 0.203333 0.206667 0.210000 0.213333 0.216667 0.220000 0.223333 0.226667 0.230000 0.233333 0.236667 0.240000 0.243333 0.246667 0.250000 0.253333 0.256667 0.260000 0.263333 0.266667 0.270000 0.273333 0.276667 0.280000 0.283333 0.286667 0.290000 0.293333 0.296667 0.300000 0.303333 0.306667 0.310000 0.313333 0.316667 0.320000 0.323333 0.326667 0.330000 0.333333 0.336667 0.340000 0.343333 0.346667 0.350000 0.353333 0.356667 0.360000 0.363333 0.366667 0.370000 0.373333 0.376667 0.380000 0.383333 0.386667 0.390000 0.393333 0.396667 0.400000 0.403333 0.406667 0.410000 0.413333 0.416667 0.420000 0.423333 0.426667 0.430000 0.433333 0.436667 0.440000 0.443333 0.446667 0.450000 0.453333 0.456667 0.460000 0.463333 0.466667 0.470000 0.473333 0.476667 0.480000 0.483333 0.486667 0.490000 0.493333 0.496667 0.500000 0.503333 0.506667 0.510000 0.513333 0.516667 0.520000 0.523333 0.526667 0.530000 0.533333 0.536667 0.540000 0.543333 0.546667 0.550000 0.553333 0.556667 0.560000 0.563333 0.566667 0.570000 0.573333 0.576667 0.580000 0.583333 0.586667 0.590000 0.593333 0.596667 0.600000 0.603333 0.606667 0.610000 0.613333 0.616667 0.620000 0.623333 0.626667 0.630000 0.633333 0.636667 0.640000 0.643333 0.646667 0.650000 0.653333 0.656667 0.660000 0.663333 0.666667 0.670000 0.673333 0.676667 0.680000 0.683333 0.686667 0.690000 0.693333 0.696667 0.700000 0.703333 0.706667 0.710000 0.713333 0.716667 0.720000 0.723333 0.726667 0.730000 0.733333 0.736667 0.740000 0.743333 0.746667 0.750000 0.753333 0.756667 0.760000 0.763333 0.766667 0.770000 0.773333 0.776667 0.780000 0.783333 0.786667 0.790000 0.793333 0.796667 0.800000 0.803333 0.806667 0.810000 0.813333 0.816667 0.820000 0.823333 0.826667 0.830000 0.833333 0.836667 0.840000 0.843333 0.846667 0.850000 0.853333 0.856667 0.860000 0.863333 0.866667 0.870000 0.873333 0.876667 0.880000 0.883333 0.886667 0.890000 0.893333 0.896667 0.900000 0.903333 0.906667 0.910000 0.913333 0.916667 0.920000 0.923333 0.926667 0.930000 0.933333 0.936667 0.940000 0.943333 0.946667 0.950000 0.953333 0.956667 0.960000 0.963333 0.966667 0.970000 0.973333 0.976667 0.980000 0.983333 0.986667 0.990000 0.993333 0.996667 1.000000 
Z_COORDINATES 1 double
0
POINT_DATA 90601 
FIELD FieldData 1 
Concentração 1 90601 double 
0.000000 
0.000000 
0.000000 
0.000000 
0.000000 
0.000000 
0.000000 
0.000000 
0.000000 
0.000000 
0.000000 
0.000000 
0.000000 
0.000000 
0.000000 
0.000000 
0.000000 
0.000000 
0.000000 
0.000000 
0.000000 
0.000000 
0.000000 
0.000000 
0.000000 
0.000000 
0.000000 
0.000000 
0.000000 
0.000000 
0.000000 
0.000000 
0.000000 
0.000000 
0.000000 
0.000000 
0.000000 
0.000000 
0.000000 
0.000000 
0.000000 
0.000000 
0.000000 
0.000000 
0.000000 
0.000000 
0.000000 
0.000000 
0.000000 
0.000001 
0.000001 
0.000001 
0.000001 
0.000001 
0.000001 
0.000001 
0.000001 
0.000001 
0.000001 
0.000001 
0.000001 
0.000001 
0.000002 
0.000002 
0.000002 
0.000002 
0.000002 
0.000002 
0.000003 
0.000003 
0.000003 
0.000003 
0.000003 
0.000004 
0.000004 
0.000004 
0.000005 
0.000005 
0.000006 
0.000006 
0.000006 
0.000007 
0.000008 
0.000008 
0.000009 
0.000009 
0.000010 
0.000011 
0.000012 
0.000013 
0.000014 
0.000015 
0.000016 
0.000017 
0.000018 
0.000019 
0.000021 
0.000022 
0.000024 
0.000026 
0.000028 
0.000029 
0.000032 
0.000034 
0.000036 
0.000039 
0.000041 
0.000044 
0.000047 
0.000050 
0.000053 
0.000057 
0.000061 
0.000065 
0.000069 
0.000073 
0.000078 
0.000083 
0.000088 
0.000094 
0.000100 
0.000106 
0.000112 
0.000119 
0.000126 
0.000134 
0.000142 
0.000150 
0.000159 
0.000169 
0.000178 
0.000189 
0.000199 
0.000211 
0.000222 
0.000235 
0.000248 
0.000261 
0.000275 
0.000290 
0.000306 
0.000322 
0.000339 
0.000357 
0.000375 
0.000394 
0.000414 
0.000435 
0.000457 
0.000479 
0.000503 
0.000527 
0.000553 
0.000579 
0.000606 
0.000634 
0.000664 
0.000694 
0.000726 
0.000758 
0.000792 
0.000827 
0.000863 
0.000900 
0.000939 
0.000978 
0.001019 
0.001061 
0.001105 
0.001149 
0.001195 
0.001243 
0.001291 
0.001341 
0.001393 
0.001445 
0.001500 
0.001555 
0.001612 
0.001670 
0.001730 
0.001791 
0.001853 
0.001917 
0.001982 
0.002048 
0.002116 
0.002185 
0.002256 
0.002328 
0.002401 
0.002475 
0.002551 
0.002628 
0.002707 
0.002786 
0.002867 
0.002949 
0.003033 
0.003117 
0.003202 
0.003289 
0.003377 
0.003465 
0.003555 
0.003646 
0.003737 
0.003830 
0.003923 
0.004017 
0.004112 
0.004208 
0.004304 
0.004401 
0.004499 
0.004597 
0.004696 
0.004795 
0.004895 
0.004995 
0.005095 
0.005196 
0.005296 
0.005398 
0.005499 
0.005600 
0.005701 
0.005803 
0.005904 
0.006005 
0.006106 
0.006207 
0.006308 
0.006408 
0.006508 
0.006608 
0.006707 
0.006805 
0.006904 
0.007001 
0.007098 
0.007194 
0.007290 
0.007384 
0.007478 
0.007571 
0.007664 
0.007755 
0.007845 
0.007934 
0.008023 
0.008110 
0.008196 
0.008280 
0.008364 
0.008446 
0.008527 
0.008607 
0.008685 
0.008762 
0.008838 
0.008912 
0.008985 
0.009056 
0.009125 
0.009193 
0.009260 
0.009325 
0.009388 
0.009449 
0.009509 
0.009567 
0.009624 
0.009678 
0.009731 
0.009782 
0.009831 
0.009879 
0.009924 
0.009968 
0.010010 
0.010050 
0.010088 
0.010124 
0.010158 
0.010190 
0.010220 
0.010249 
0.010275 
0.010299 
0.010321 
0.010342 
0.010360 
0.010376 
0.010390 
0.010403 
0.010413 
0.010421 
0.010427 
0.010431 
0.010433 
0.000000 
0.000000 
0.000000 
0.000000 
0.000000 
0.000000 
0.000000 
0.000000 
0.000000 
0.000000 
0.000000 
0.000000 
0.000000 
0.000000 
0.000000 
0.000000 
0.000000 
0.000000 
0.000000 
0.000000 
0.000000 
0.000000 
0.000000 
0.000000 
0.000000 
0.000000 
0.000000 
0.000000 
0.000000 
0.000000 
0.000000 
0.000000 
0.000000 
0.000000 
0.000000 
0.000000 
0.000000 
0.000000 
0.000000 
0.000000 
0.000000 
0.000001 
0.000001 
0.000001 
0.000001 
0.000001 
0.000001 
0.000001 
0.000001 
0.000001 
0.000001 
0.000001 
0.000001 
0.000001 
0.000002 
0.000002 
0.000002 
0.000002 
0.000002 
0.000002 
0.000003 
0.000003 
0.000003 
0.000003 
0.000004 
0.000004 
0.000004 
0.000005 
0.000005 
0.000006 
0.000006 
0.000006 
0.000007 
0.000008 
0.000008 
0.000009 
0.000010 
0.000010 
0.000011 
0.000012 
0.000013 
0.000014 
0.000015 
0.000016 
0.000018 
0.000019 
0.000020 
0.000022 
0.000024 
0.000026 
0.000027 
0.000029 
0.000032 
0.000034 
0.000036 
0.000039 
0.000042 
0.000045 
0.000048 
0.000052 
0.000055 
0.000059 
0.000063 
0.000068 
0.000073 
0.000078 
0.000083 
0.000088 
0.000094 
0.000101 
0.000107 
0.000115 
0.000122 
0.000130 
0.000139 
0.000147 
0.000157 
0.000167 
0.000177 
0.000189 
0.000200 
0.000213 
0.000226 
0.000239 
0.000254 
0.000269 
0.000285 
0.000302 
0.000320 
0.000339 
0.000358 
0.000379 
0.000400 
0.000423 
0.000447 
0.000471 
0.000497 
0.000525 
0.000553 
0.000583 
0.000614 
0.000647 
0.000681 
0.000716 
0.000753 
0.000792 
0.000832 
0.000874 
0.000917 
0.000962 
0.001009 
0.001058 
0.001109 
0.001162 
0.001217 
0.001274 
0.001332 
0.001393 
0.001457 
0.001522 
0.001590 
0.001660 
0.001732 
0.001807 
0.001884 
0.001963 
0.002045 
0.002130 
0.002217 
0.002306 
0.002399 
0.002493 
0.002591 
0.002691 
0.002794 
0.002900 
0.003008 
0.003119 
0.003233 
0.003350 
0.003469 
0.003591 
0.003716 
0.003844 
0.003974 
0.004107 
0.004243 
0.004382 
0.004523 
0.004667 
0.004813 
0.004963 
0.005114 
0.005269 
0.005426 
0.005585 
0.005747 
0.005911 
0.006078 
0.006246 
0.006417 
0.006591 
0.006766 
0.006943 
0.007123 
0.007304 
0.007487 
0.007672 
0.007859 
0.008047 
0.008237 
0.008428 
0.008621 
0.008814 
0.009010 
0.009206 
0.009403 
0.009601 
0.009800 
0.010000 
0.010201 
0.010402 
0.010603 
0.010805 
0.011007 
0.011209 
0.011412 
0.011614 
0.011817 
0.012019 
0.012220 
0.012422 
0.012622 
0.012823 
0.013022 
0.013221 
0.013419 
0.013616 
0.013811 
0.014006 
0.014199 
0.014391 
0.014582 
0.014771 
0.014958 
0.015144 
0.015328 
0.015510 
0.015690 
0.015868 
0.016043 
0.016217 
0.016388 
0.016557 
0.016724 
0.016888 
0.017050 
0.017208 
0.017365 
0.017518 
0.017669 
0.017816 
0.017961 
0.018103 
0.018241 
0.018377 
0.018509 
0.018639 
0.018764 
0.018887 
0.019006 
0.019122 
0.019234 
0.019343 
0.019448 
0.019550 
0.019648 
0.019742 
0.019833 
0.019920 
0.020003 
0.020083 
0.020158 
0.020230 
0.020298 
0.020362 
0.020422 
0.020479 
0.020531 
0.020579 
0.020624 
0.020664 
0.020701 
0.020733 
0.020761 
0.020786 
0.020806 
0.020822 
0.020834 
0.020843 
0.020847 
0.000000 
0.000000 
0.000000 
0.000000 
0.000000 
0.000000 
0.000000 
0.000000 
0.000000 
0.000000 
0.000000 
0.000000 
0.000000 
0.000000 
0.000000 
0.000000 
0.000000 
0.000000 
0.000000 
0.000000 
0.000000 
0.000000 
0.000000 
0.000000 
0.000000 
0.000000 
0.000000 
0.000000 
0.000000 
0.000000 
0.000000 
0.000000 
0.000000 
0.000000 
0.000000 
0.000000 
0.000000 
0.000001 
0.000001 
0.000001 
0.000001 
0.000001 
0.000001 
0.000001 
0.000001 
0.000001 
0.000001 
0.000001 
0.000001 
0.000002 
0.000002 
0.000002 
0.000002 
0.000002 
0.000002 
0.000003 
0.000003 
0.000003 
0.000003 
0.000004 
0.000004 
0.000004 
0.000005 
0.000005 
0.000006 
0.000006 
0.000007 
0.000007 
0.000008 
0.000008 
0.000009 
0.000010 
0.000011 
0.000011 
0.000012 
0.000013 
0.000015 
0.000016 
0.000017 
0.000018 
0.000020 
0.000021 
0.000023 
0.000025 
0.000027 
0.000029 
0.000031 
0.000033 
0.000036 
0.000039 
0.000041 
0.000045 
0.000048 
0.000051 
0.000055 
0.000059 
0.000064 
0.000068 
0.000073 
0.000078 
0.000084 
0.000090 
0.000096 
0.000103 
0.000110 
0.000117 
0.000125 
0.000134 
0.000143 
0.000152 
0.000162 
0.000173 
0.000185 
0.000197 
0.000209 
0.000223 
0.000237 
0.000252 
0.000268 
0.000285 
0.000303 
0.000321 
0.000341 
0.000362 
0.000384 
0.000407 
0.000431 
0.000457 
0.000483 
0.000511 
0.000541 
0.000572 
0.000605 
0.000639 
0.000675 
0.000712 
0.000751 
0.000793 
0.000836 
0.000881 
0.000928 
0.000977 
0.001028 
0.001081 
0.001137 
0.001195 
0.001256 
0.001319 
0.001385 
0.001453 
0.001524 
0.001598 
0.001674 
0.001754 
0.001837 
0.001922 
0.002011 
0.002103 
0.002198 
0.002297 
0.002399 
0.002504 
0.002613 
0.002726 
0.002842 
0.002961 
0.003085 
0.003212 
0.003343 
0.003478 
0.003617 
0.003760 
0.003907 
0.004058 
0.004213 
0.004371 
0.004535 
0.004702 
0.004873 
0.005048 
0.005228 
0.005412 
0.005599 
0.005791 
0.005987 
0.006188 
0.006392 
0.006600 
0.006813 
0.007029 
0.007249 
0.007473 
0.007701 
0.007933 
0.008169 
0.008408 
0.008651 
0.008898 
0.009148 
0.009401 
0.009658 
0.009918 
0.010181 
0.010447 
0.010716 
0.010988 
0.011263 
0.011540 
0.011820 
0.012102 
0.012387 
0.012673 
0.012962 
0.013252 
0.013545 
0.013839 
0.014134 
0.014431 
0.014729 
0.015029 
0.015329 
0.015630 
0.015931 
0.016234 
0.016536 
0.016839 
0.017142 
0.017445 
0.017747 
0.018049 
0.018351 
0.018652 
0.018953 
0.019252 
0.019550 
0.019847 
0.020143 
0.020437 
0.020730 
0.021021 
0.021310 
0.021596 
0.021881 
0.022163 
0.022443 
0.022720 
0.022995 
0.023267 
0.023535 
0.023801 
0.024064 
0.024323 
0.024579 
0.024831 
0.025079 
0.025324 
0.025565 
0.025802 
0.026035 
0.026264 
0.026489 
0.026709 
0.026925 
0.027136 
0.027343 
0.027545 
0.027743 
0.027935 
0.028123 
0.028306 
0.028483 
0.028656 
0.028823 
0.028985 
0.029142 
0.029294 
0.029440 
0.029581 
0.029716 
0.029845 
0.029969 
0.030088 
0.030201 
0.030308 
0.030409 
0.030504 
0.030594 
0.030678 
0.030756 
0.030828 
0.030894 
0.030954 
0.031008 
0.031057 
0.031099 
0.031135 
0.031165 
0.031189 
0.031208 
0.031220 
0.031226 
0.000000 
0.000000 
0.000000 
0.000000 
0.000000 
0.000000 
0.000000 
0.000000 
0.000000 
0.000000 
0.000000 
0.000000 
0.000000 
0.000000 
0.000000 
0.000000 
0.000000 
0.000000 
0.000000 
0.000000 
0.000000 
0.000000 
0.000000 
0.000000 
0.000000 
0.000000 
0.000000 
0.000000 
0.000000 
0.000000 
0.000000 
0.000000 
0.000000 
0.000000 
0.000001 
0.000001 
0.000001 
0.000001 
0.000001 
0.000001 
0.000001 
0.000001 
0.000001 
0.000001 
0.000001 
0.000001 
0.000002 
0.000002 
0.000002 
0.000002 
0.000002 
0.000002 
0.000003 
0.000003 
0.000003 
0.000004 
0.000004 
0.000004 
0.000005 
0.000005 
0.000005 
0.000006 
0.000006 
0.000007 
0.000008 
0.000008 
0.000009 
0.000010 
0.000010 
0.000011 
0.000012 
0.000013 
0.000014 
0.000015 
0.000017 
0.000018 
0.000020 
0.000021 
0.000023 
0.000025 
0.000027 
0.000029 
0.000031 
0.000033 
0.000036 
0.000039 
0.000042 
0.000045 
0.000048 
0.000052 
0.000056 
0.000060 
0.000065 
0.000069 
0.000074 
0.000080 
0.000086 
0.000092 
0.000098 
0.000105 
0.000113 
0.000121 
0.000129 
0.000138 
0.000148 
0.000158 
0.000169 
0.000180 
0.000192 
0.000205 
0.000219 
0.000233 
0.000249 
0.000265 
0.000282 
0.000300 
0.000320 
0.000340 
0.000361 
0.000384 
0.000408 
0.000433 
0.000459 
0.000487 
0.000517 
0.000548 
0.000581 
0.000615 
0.000651 
0.000689 
0.000729 
0.000770 
0.000814 
0.000860 
0.000908 
0.000959 
0.001012 
0.001067 
0.001125 
0.001185 
0.001249 
0.001315 
0.001384 
0.001455 
0.001530 
0.001609 
0.001690 
0.001775 
0.001863 
0.001955 
0.002050 
0.002149 
0.002252 
0.002359 
0.002470 
0.002585 
0.002704 
0.002828 
0.002956 
0.003088 
0.003225 
0.003366 
0.003512 
0.003663 
0.003819 
0.003980 
0.004145 
0.004316 
0.004492 
0.004673 
0.004859 
0.005050 
0.005247 
0.005449 
0.005657 
0.005870 
0.006088 
0.006312 
0.006541 
0.006776 
0.007017 
0.007262 
0.007514 
0.007771 
0.008033 
0.008301 
0.008574 
0.008853 
0.009136 
0.009426 
0.009720 
0.010020 
0.010324 
0.010634 
0.010949 
0.011269 
0.011593 
0.011922 
0.012256 
0.012594 
0.012937 
0.013284 
0.013635 
0.013990 
0.014349 
0.014711 
0.015077 
0.015447 
0.015820 
0.016196 
0.016575 
0.016957 
0.017342 
0.017729 
0.018118 
0.018509 
0.018903 
0.019298 
0.019695 
0.020093 
0.020492 
0.020892 
0.021294 
0.021695 
0.022098 
0.022500 
0.022903 
0.023305 
0.023707 
0.024109 
0.024510 
0.024910 
0.025308 
0.025706 
0.026102 
0.026496 
0.026889 
0.027279 
0.027667 
0.028053 
0.028436 
0.028817 
0.029194 
0.029568 
0.029939 
0.030307 
0.030671 
0.031031 
0.031387 
0.031739 
0.032087 
0.032430 
0.032769 
0.033103 
0.033433 
0.033757 
0.034076 
0.034390 
0.034698 
0.035001 
0.035298 
0.035590 
0.035876 
0.036155 
0.036429 
0.036696 
0.036957 
0.037212 
0.037460 
0.037702 
0.037937 
0.038165 
0.038386 
0.038601 
0.038808 
0.039008 
0.039201 
0.039387 
0.039566 
0.039737 
0.039901 
0.040058 
0.040207 
0.040348 
0.040482 
0.040608 
0.040727 
0.040837 
0.040940 
0.041036 
0.041123 
0.041202 
0.041274 
0.041338 
0.041394 
0.041441 
0.041481 
0.041513 
0.041537 
0.041553 
0.041561 
0.000000 
0.000000 
0.000000 
0.000000 
0.000000 
0.000000 
0.000000 
0.000000 
0.000000 
0.000000 
0.000000 
0.000000 
0.000000 
0.000000 
0.000000 
0.000000 
0.000000 
0.000000 
0.000000 
0.000000 
0.000000 
0.000000 
0.000000 
0.000000 
0.000000 
0.000000 
0.000000 
0.000000 
0.000000 
0.000000 
0.000000 
0.000001 
0.000001 
0.000001 
0.000001 
0.000001 
0.000001 
0.000001 
0.000001 
0.000001 
0.000001 
0.000001 
0.000001 
0.000002 
0.000002 
0.000002 
0.000002 
0.000002 
0.000002 
0.000003 
0.000003 
0.000003 
0.000003 
0.000004 
0.000004 
0.000004 
0.000005 
0.000005 
0.000006 
0.000006 
0.000007 
0.000007 
0.000008 
0.000009 
0.000010 
0.000010 
0.000011 
0.000012 
0.000013 
0.000014 
0.000015 
0.000017 
0.000018 
0.000020 
0.000021 
0.000023 
0.000025 
0.000027 
0.000029 
0.000031 
0.000034 
0.000036 
0.000039 
0.000042 
0.000046 
0.000049 
0.000053 
0.000057 
0.000061 
0.000066 
0.000071 
0.000076 
0.000082 
0.000088 
0.000094 
0.000101 
0.000109 
0.000116 
0.000125 
0.000134 
0.000143 
0.000153 
0.000164 
0.000175 
0.000187 
0.000200 
0.000214 
0.000228 
0.000244 
0.000260 
0.000277 
0.000296 
0.000315 
0.000336 
0.000358 
0.000381 
0.000405 
0.000431 
0.000458 
0.000486 
0.000517 
0.000548 
0.000582 
0.000617 
0.000655 
0.000694 
0.000735 
0.000779 
0.000824 
0.000872 
0.000923 
0.000976 
0.001031 
0.001089 
0.001150 
0.001214 
0.001281 
0.001351 
0.001424 
0.001500 
0.001580 
0.001663 
0.001751 
0.001841 
0.001936 
0.002035 
0.002138 
0.002245 
0.002356 
0.002472 
0.002592 
0.002718 
0.002848 
0.002982 
0.003122 
0.003267 
0.003418 
0.003573 
0.003735 
0.003901 
0.004074 
0.004252 
0.004436 
0.004627 
0.004823 
0.005025 
0.005234 
0.005449 
0.005670 
0.005898 
0.006132 
0.006373 
0.006621 
0.006875 
0.007136 
0.007404 
0.007678 
0.007960 
0.008248 
0.008543 
0.008845 
0.009154 
0.009470 
0.009792 
0.010121 
0.010458 
0.010800 
0.011150 
0.011506 
0.011869 
0.012238 
0.012614 
0.012996 
0.013384 
0.013779 
0.014179 
0.014586 
0.014998 
0.015416 
0.015839 
0.016268 
0.016702 
0.017141 
0.017585 
0.018034 
0.018487 
0.018945 
0.019407 
0.019873 
0.020343 
0.020817 
0.021293 
0.021774 
0.022257 
0.022743 
0.023231 
0.023722 
0.024215 
0.024710 
0.025206 
0.025704 
0.026203 
0.026703 
0.027203 
0.027704 
0.028206 
0.028707 
0.029208 
0.029709 
0.030208 
0.030707 
0.031205 
0.031701 
0.032195 
0.032687 
0.033178 
0.033666 
0.034151 
0.034633 
0.035112 
0.035588 
0.036061 
0.036529 
0.036994 
0.037455 
0.037911 
0.038363 
0.038809 
0.039251 
0.039688 
0.040119 
0.040545 
0.040965 
0.041379 
0.041788 
0.042189 
0.042585 
0.042974 
0.043356 
0.043731 
0.044099 
0.044461 
0.044814 
0.045161 
0.045499 
0.045830 
0.046154 
0.046469 
0.046776 
0.047075 
0.047366 
0.047648 
0.047922 
0.048187 
0.048443 
0.048691 
0.048930 
0.049160 
0.049381 
0.049593 
0.049796 
0.049989 
0.050173 
0.050348 
0.050513 
0.050669 
0.050816 
0.050953 
0.051080 
0.051198 
0.051306 
0.051404 
0.051492 
0.051571 
0.051640 
0.051699 
0.051749 
0.051788 
0.051818 
0.051838 
0.051847 
0.000000 
0.000000 
0.000000 
0.000000 
0.000000 
0.000000 
0.000000 
0.000000 
0.000000 
0.000000 
0.000000 
0.000000 
0.000000 
0.000000 
0.000000 
0.000000 
0.000000 
0.000000 
0.000000 
0.000000 
0.000000 
0.000000 
0.000000 
0.000000 
0.000000 
0.000000 
0.000000 
0.000000 
0.000000 
0.000001 
0.000001 
0.000001 
0.000001 
0.000001 
0.000001 
0.000001 
0.000001 
0.000001 
0.000001 
0.000001 
0.000001 
0.000002 
0.000002 
0.000002 
0.000002 
0.000002 
0.000002 
0.000003 
0.000003 
0.000003 
0.000004 
0.000004 
0.000004 
0.000005 
0.000005 
0.000005 
0.000006 
0.000006 
0.000007 
0.000008 
0.000008 
0.000009 
0.000010 
0.000011 
0.000012 
0.000013 
0.000014 
0.000015 
0.000016 
0.000017 
0.000019 
0.000020 
0.000022 
0.000024 
0.000026 
0.000028 
0.000030 
0.000033 
0.000035 
0.000038 
0.000041 
0.000045 
0.000048 
0.000052 
0.000056 
0.000060 
0.000065 
0.000070 
0.000075 
0.000081 
0.000087 
0.000093 
0.000100 
0.000107 
0.000115 
0.000124 
0.000133 
0.000142 
0.000152 
0.000163 
0.000175 
0.000187 
0.000200 
0.000214 
0.000229 
0.000244 
0.000261 
0.000279 
0.000298 
0.000317 
0.000339 
0.000361 
0.000385 
0.000410 
0.000436 
0.000464 
0.000494 
0.000525 
0.000558 
0.000593 
0.000630 
0.000669 
0.000710 
0.000753 
0.000798 
0.000846 
0.000896 
0.000949 
0.001005 
0.001063 
0.001125 
0.001189 
0.001256 
0.001327 
0.001401 
0.001479 
0.001560 
0.001645 
0.001734 
0.001827 
0.001924 
0.002026 
0.002132 
0.002242 
0.002357 
0.002477 
0.002602 
0.002732 
0.002867 
0.003008 
0.003154 
0.003306 
0.003464 
0.003628 
0.003798 
0.003974 
0.004156 
0.004345 
0.004540 
0.004743 
0.004952 
0.005168 
0.005391 
0.005621 
0.005859 
0.006104 
0.006357 
0.006617 
0.006885 
0.007161 
0.007444 
0.007736 
0.008035 
0.008343 
0.008658 
0.008982 
0.009314 
0.009654 
0.010002 
0.010359 
0.010723 
0.011096 
0.011477 
0.011866 
0.012264 
0.012669 
0.013083 
0.013504 
0.013933 
0.014371 
0.014816 
0.015268 
0.015728 
0.016196 
0.016670 
0.017152 
0.017641 
0.018137 
0.018640 
0.019149 
0.019664 
0.020186 
0.020713 
0.021247 
0.021786 
0.022330 
0.022879 
0.023434 
0.023993 
0.024556 
0.025124 
0.025696 
0.026271 
0.026850 
0.027432 
0.028018 
0.028605 
0.029195 
0.029787 
0.030381 
0.030977 
0.031574 
0.032172 
0.032770 
0.033369 
0.033968 
0.034567 
0.035165 
0.035763 
0.036360 
0.036955 
0.037549 
0.038141 
0.038730 
0.039318 
0.039902 
0.040484 
0.041062 
0.041637 
0.042208 
0.042775 
0.043338 
0.043896 
0.044449 
0.044997 
0.045540 
0.046078 
0.046609 
0.047135 
0.047654 
0.048167 
0.048673 
0.049173 
0.049665 
0.050150 
0.050627 
0.051097 
0.051559 
0.052013 
0.052459 
0.052896 
0.053324 
0.053744 
0.054155 
0.054557 
0.054950 
0.055333 
0.055707 
0.056072 
0.056426 
0.056771 
0.057106 
0.057430 
0.057745 
0.058049 
0.058342 
0.058626 
0.058898 
0.059160 
0.059411 
0.059651 
0.059880 
0.060098 
0.060306 
0.060501 
0.060686 
0.060860 
0.061022 
0.061173 
0.061312 
0.061440 
0.061556 
0.061661 
0.061754 
0.061836 
0.061906 
0.061964 
0.062011 
0.062046 
0.062069 
0.062081 
0.000000 
0.000000 
0.000000 
0.000000 
0.000000 
0.000000 
0.000000 
0.000000 
0.000000 
0.000000 
0.000000 
0.000000 
0.000000 
0.000000 
0.000000 
0.000000 
0.000000 
0.000000 
0.000000 
0.000000 
0.000000 
0.000000 
0.000000 
0.000000 
0.000000 
0.000000 
0.000000 
0.000001 
0.000001 
0.000001 
0.000001 
0.000001 
0.000001 
0.000001 
0.000001 
0.000001 
0.000001 
0.000001 
0.000001 
0.000002 
0.000002 
0.000002 
0.000002 
0.000002 
0.000002 
0.000003 
0.000003 
0.000003 
0.000004 
0.000004 
0.000004 
0.000005 
0.000005 
0.000005 
0.000006 
0.000007 
0.000007 
0.000008 
0.000008 
0.000009 
0.000010 
0.000011 
0.000012 
0.000013 
0.000014 
0.000015 
0.000016 
0.000018 
0.000019 
0.000021 
0.000023 
0.000024 
0.000026 
0.000029 
0.000031 
0.000033 
0.000036 
0.000039 
0.000042 
0.000046 
0.000049 
0.000053 
0.000057 
0.000062 
0.000066 
0.000072 
0.000077 
0.000083 
0.000089 
0.000096 
0.000103 
0.000111 
0.000119 
0.000128 
0.000137 
0.000147 
0.000158 
0.000169 
0.000181 
0.000194 
0.000208 
0.000222 
0.000238 
0.000255 
0.000272 
0.000291 
0.000311 
0.000332 
0.000354 
0.000378 
0.000403 
0.000429 
0.000457 
0.000487 
0.000519 
0.000552 
0.000587 
0.000625 
0.000664 
0.000705 
0.000749 
0.000795 
0.000844 
0.000895 
0.000949 
0.001006 
0.001065 
0.001128 
0.001194 
0.001263 
0.001336 
0.001412 
0.001493 
0.001576 
0.001664 
0.001756 
0.001853 
0.001954 
0.002059 
0.002169 
0.002284 
0.002404 
0.002530 
0.002661 
0.002797 
0.002939 
0.003087 
0.003241 
0.003401 
0.003567 
0.003740 
0.003920 
0.004107 
0.004300 
0.004501 
0.004709 
0.004925 
0.005148 
0.005379 
0.005618 
0.005864 
0.006120 
0.006383 
0.006655 
0.006935 
0.007224 
0.007522 
0.007829 
0.008145 
0.008470 
0.008804 
0.009147 
0.009500 
0.009862 
0.010233 
0.010614 
0.011005 
0.011404 
0.011814 
0.012233 
0.012662 
0.013100 
0.013547 
0.014004 
0.014471 
0.014947 
0.015432 
0.015926 
0.016430 
0.016942 
0.017464 
0.017994 
0.018533 
0.019081 
0.019637 
0.020201 
0.020773 
0.021353 
0.021941 
0.022536 
0.023139 
0.023748 
0.024365 
0.024988 
0.025617 
0.026252 
0.026894 
0.027541 
0.028193 
0.028850 
0.029512 
0.030178 
0.030849 
0.031523 
0.032201 
0.032882 
0.033566 
0.034253 
0.034941 
0.035632 
0.036325 
0.037018 
0.037713 
0.038408 
0.039104 
0.039800 
0.040495 
0.041189 
0.041883 
0.042575 
0.043265 
0.043954 
0.044640 
0.045323 
0.046004 
0.046681 
0.047354 
0.048024 
0.048689 
0.049350 
0.050006 
0.050657 
0.051302 
0.051942 
0.052576 
0.053203 
0.053824 
0.054438 
0.055046 
0.055645 
0.056238 
0.056822 
0.057398 
0.057966 
0.058526 
0.059077 
0.059619 
0.060151 
0.060674 
0.061188 
0.061692 
0.062186 
0.062670 
0.063143 
0.063607 
0.064059 
0.064500 
0.064931 
0.065350 
0.065759 
0.066155 
0.066541 
0.066914 
0.067276 
0.067626 
0.067964 
0.068289 
0.068603 
0.068904 
0.069192 
0.069469 
0.069732 
0.069983 
0.070221 
0.070446 
0.070659 
0.070858 
0.071044 
0.071217 
0.071378 
0.071524 
0.071658 
0.071779 
0.071886 
0.071980 
0.072060 
0.072127 
0.072181 
0.072221 
0.072248 
0.072261 
0.000000 
0.000000 
0.000000 
0.000000 
0.000000 
0.000000 
0.000000 
0.000000 
0.000000 
0.000000 
0.000000 
0.000000 
0.000000 
0.000000 
0.000000 
0.000000 
0.000000 
0.000000 
0.000000 
0.000000 
0.000000 
0.000000 
0.000000 
0.000000 
0.000000 
0.000000 
0.000001 
0.000001 
0.000001 
0.000001 
0.000001 
0.000001 
0.000001 
0.000001 
0.000001 
0.000001 
0.000001 
0.000002 
0.000002 
0.000002 
0.000002 
0.000002 
0.000002 
0.000003 
0.000003 
0.000003 
0.000003 
0.000004 
0.000004 
0.000005 
0.000005 
0.000005 
0.000006 
0.000006 
0.000007 
0.000008 
0.000008 
0.000009 
0.000010 
0.000011 
0.000012 
0.000013 
0.000014 
0.000015 
0.000016 
0.000018 
0.000019 
0.000021 
0.000022 
0.000024 
0.000026 
0.000029 
0.000031 
0.000033 
0.000036 
0.000039 
0.000042 
0.000046 
0.000049 
0.000053 
0.000057 
0.000062 
0.000067 
0.000072 
0.000078 
0.000084 
0.000090 
0.000097 
0.000104 
0.000112 
0.000121 
0.000130 
0.000139 
0.000149 
0.000160 
0.000172 
0.000184 
0.000198 
0.000212 
0.000227 
0.000243 
0.000260 
0.000278 
0.000298 
0.000318 
0.000340 
0.000363 
0.000388 
0.000414 
0.000441 
0.000471 
0.000502 
0.000535 
0.000569 
0.000606 
0.000645 
0.000686 
0.000729 
0.000775 
0.000824 
0.000875 
0.000929 
0.000985 
0.001045 
0.001108 
0.001174 
0.001244 
0.001317 
0.001394 
0.001474 
0.001559 
0.001648 
0.001741 
0.001839 
0.001941 
0.002048 
0.002161 
0.002278 
0.002401 
0.002529 
0.002663 
0.002802 
0.002948 
0.003100 
0.003259 
0.003424 
0.003596 
0.003774 
0.003960 
0.004154 
0.004355 
0.004563 
0.004780 
0.005004 
0.005237 
0.005479 
0.005729 
0.005987 
0.006255 
0.006532 
0.006818 
0.007113 
0.007418 
0.007733 
0.008058 
0.008392 
0.008737 
0.009092 
0.009457 
0.009832 
0.010218 
0.010615 
0.011022 
0.011440 
0.011869 
0.012309 
0.012759 
0.013220 
0.013693 
0.014176 
0.014670 
0.015174 
0.015690 
0.016216 
0.016753 
0.017301 
0.017859 
0.018428 
0.019007 
0.019596 
0.020195 
0.020804 
0.021423 
0.022052 
0.022690 
0.023337 
0.023993 
0.024658 
0.025332 
0.026014 
0.026704 
0.027403 
0.028108 
0.028821 
0.029541 
0.030268 
0.031001 
0.031741 
0.032486 
0.033237 
0.033993 
0.034753 
0.035519 
0.036288 
0.037061 
0.037838 
0.038617 
0.039400 
0.040185 
0.040971 
0.041760 
0.042549 
0.043340 
0.044131 
0.044922 
0.045712 
0.046503 
0.047292 
0.048079 
0.048865 
0.049649 
0.050431 
0.051209 
0.051984 
0.052756 
0.053524 
0.054287 
0.055046 
0.055800 
0.056548 
0.057291 
0.058028 
0.058758 
0.059482 
0.060199 
0.060909 
0.061611 
0.062305 
0.062991 
0.063669 
0.064338 
0.064998 
0.065649 
0.066290 
0.066922 
0.067544 
0.068155 
0.068756 
0.069346 
0.069926 
0.070494 
0.071051 
0.071596 
0.072130 
0.072651 
0.073161 
0.073658 
0.074143 
0.074616 
0.075075 
0.075522 
0.075956 
0.076376 
0.076783 
0.077177 
0.077557 
0.077923 
0.078276 
0.078615 
0.078939 
0.079250 
0.079546 
0.079828 
0.080096 
0.080349 
0.080588 
0.080812 
0.081021 
0.081216 
0.081396 
0.081561 
0.081711 
0.081846 
0.081967 
0.082072 
0.082163 
0.082238 
0.082298 
0.082344 
0.082374 
0.082389 
0.000000 
0.000000 
0.000000 
0.000000 
0.000000 
0.000000 
0.000000 
0.000000 
0.000000 
0.000000 
0.000000 
0.000000 
0.000000 
0.000000 
0.000000 
0.000000 
0.000000 
0.000000 
0.000000 
0.000000 
0.000000 
0.000000 
0.000000 
0.000000 
0.000001 
0.000001 