# vtk DataFile Version 3.0
results.vtk
ASCII
DATASET RECTILINEAR_GRID
DIMENSIONS 301 301 1
X_COORDINATES 301 double
0.000000 0.003333 0.006667 0.010000 0.013333 0.016667 0.020000 0.023333 0.026667 0.030000 0.033333 0.036667 0.040000 0.043333 0.046667 0.050000 0.053333 0.056667 0.060000 0.063333 0.066667 0.070000 0.073333 0.076667 0.080000 0.083333 0.086667 0.090000 0.093333 0.096667 0.100000 0.103333 0.106667 0.110000 0.113333 0.116667 0.120000 0.123333 0.126667 0.130000 0.133333 0.136667 0.140000 0.143333 0.146667 0.150000 0.153333 0.156667 0.160000 0.163333 0.166667 0.170000 0.173333 0.176667 0.180000 0.183333 0.186667 0.190000 0.193333 0.196667 0.200000 0.203333 0.206667 0.210000 0.213333 0.216667 0.220000 0.223333 0.226667 0.230000 0.233333 0.236667 0.240000 0.243333 0.246667 0.250000 0.253333 0.256667 0.260000 0.263333 0.266667 0.270000 0.273333 0.276667 0.280000 0.283333 0.286667 0.290000 0.293333 0.296667 0.300000 0.303333 0.306667 0.310000 0.313333 0.316667 0.320000 0.323333 0.326667 0.330000 0.333333 0.336667 0.340000 0.343333 0.346667 0.350000 0.353333 0.356667 0.360000 0.363333 0.366667 0.370000 0.373333 0.376667 0.380000 0.383333 0.386667 0.390000 0.393333 0.396667 0.400000 0.403333 0.406667 0.410000 0.413333 0.416667 0.420000 0.423333 0.426667 0.430000 0.433333 0.436667 0.440000 0.443333 0.446667 0.450000 0.453333 0.456667 0.460000 0.463333 0.466667 0.470000 0.473333 0.476667 0.480000 0.483333 0.486667 0.490000 0.493333 0.496667 0.500000 0.503333 0.506667 0.510000 0.513333 0.516667 0.520000 0.523333 0.526667 0.530000 0.533333 0.536667 0.540000 0.543333 0.546667 0.550000 0.553333 0.556667 0.560000 0.563333 0.566667 0.570000 0.573333 0.576667 0.580000 0.583333 0.586667 0.590000 0.593333 0.596667 0.600000 0.603333 0.606667 0.610000 0.613333 0.616667 0.620000 0.623333 0.626667 0.630000 0.633333 0.636667 0.640000 0.643333 0.646667 0.650000 0.653333 0.656667 0.660000 0.663333 0.666667 0.670000 0.673333 0.676667 0.680000 0.683333 0.686667 0.690000 0.693333 0.696667 0.700000 0.703333 0.706667 0.710000 0.713333 0.716667 0.720000 0.723333 0.726667 0.730000 0.733333 0.736667 0.740000 0.743333 0.746667 0.750000 0.753333 0.756667 0.760000 0.763333 0.766667 0.770000 0.773333 0.776667 0.780000 0.783333 0.786667 0.790000 0.793333 0.796667 0.800000 0.803333 0.806667 0.810000 0.813333 0.816667 0.820000 0.823333 0.826667 0.830000 0.833333 0.836667 0.840000 0.843333 0.846667 0.850000 0.853333 0.856667 0.860000 0.863333 0.866667 0.870000 0.873333 0.876667 0.880000 0.883333 0.886667 0.890000 0.893333 0.896667 0.900000 0.903333 0.906667 0.910000 0.913333 0.916667 0.920000 0.923333 0.926667 0.930000 0.933333 0.936667 0.940000 0.943333 0.946667 0.950000 0.953333 0.956667 0.960000 0.963333 0.966667 0.970000 0.973333 0.976667 0.980000 0.983333 0.986667 0.990000 0.993333 0.996667 1.000000 
Y_COORDINATES 301 double
0.000000 0.003333 0.006667 0.010000 0.013333 0.016667 0.020000 0.023333 0.026667 0.030000 0.033333 0.036667 0.040000 0.043333 0.046667 0.050000 0.053333 0.056667 0.060000 0.063333 0.066667 0.070000 0.073333 0.076667 0.080000 0.083333 0.086667 0.090000 0.093333 0.096667 0.100000 0.103333 0.106667 0.110000 0.113333 0.116667 0.120000 0.123333 0.126667 0.130000 0.133333 0.136667 0.140000 0.143333 0.146667 0.150000 0.153333 0.156667 0.160000 0.163333 0.166667 0.170000 0.173333 0.176667 0.180000 0.183333 0.186667 0.190000 0.193333 0.196667 0.200000 0.203333 0.206667 0.210000 0.213333 0.216667 0.220000 0.223333 0.226667 0.230000 0.233333 0.236667 0.240000 0.243333 0.246667 0.250000 0.253333 0.256667 0.260000 0.263333 0.266667 0.270000 0.273333 0.276667 0.280000 0.283333 0.286667 0.290000 0.293333 0.296667 0.300000 0.303333 0.306667 0.310000 0.313333 0.316667 0.320000 0.323333 0.326667 0.330000 0.333333 0.336667 0.340000 0.343333 0.346667 0.350000 0.353333 0.356667 0.360000 0.363333 0.366667 0.370000 0.373333 0.376667 0.380000 0.383333 0.386667 0.390000 0.393333 0.396667 0.400000 0.403333 0.406667 0.410000 0.413333 0.416667 0.420000 0.423333 0.426667 0.430000 0.433333 0.436667 0.440000 0.443333 0.446667 0.450000 0.453333 0.456667 0.460000 0.463333 0.466667 0.470000 0.473333 0.476667 0.480000 0.483333 0.486667 0.490000 0.493333 0.496667 0.500000 0.503333 0.506667 0.510000 0.513333 0.516667 0.520000 0.523333 0.526667 0.530000 0.533333 0.536667 0.540000 0.543333 0.546667 0.550000 0.553333 0.556667 0.560000 0.563333 0.566667 0.570000 0.573333 0.576667 0.580000 0.583333 0.586667 0.590000 0.593333 0.596667 0.600000 0.603333 0.606667 0.610000 0.613333 0.616667 0.620000 0.623333 0.626667 0.630000 0.633333 0.636667 0.640000 0.643333 0.646667 0.650000 0.653333 0.656667 0.660000 0.663333 0.666667 0.670000 0.673333 0.676667 0.680000 0.683333 0.686667 0.690000 0.693333 0.696667 0.700000 0.703333 0.706667 0.710000 0.713333 0.716667 0.720000 0.723333 0.726667 0.730000 0.733333 0.736667 0.740000 0.743333 0.746667 0.750000 0.753333 0.756667 0.760000 0.763333 0.766667 0.770000 0.773333 0.776667 0.780000 0.783333 0.786667 0.790000 0.793333 0.796667 0.800000 0.803333 0.806667 0.810000 0.813333 0.816667 0.820000 0.823333 0.826667 0.830000 0.833333 0.836667 0.840000 0.843333 0.846667 0.850000 0.853333 0.856667 0.860000 0.863333 0.866667 0.870000 0.873333 0.876667 0.880000 0.883333 0.886667 0.890000 0.893333 0.896667 0.900000 0.903333 0.906667 0.910000 0.913333 0.916667 0.920000 0.923333 0.926667 0.930000 0.933333 0.936667 0.940000 0.943333 0.946667 0.950000 0.953333 0.956667 0.960000 0.963333 0.966667 0.970000 0.973333 0.976667 0.980000 0.983333 0.986667 0.990000 0.993333 0.996667 1.000000 
Z_COORDINATES 1 double
0
POINT_DATA 90601 
FIELD FieldData 1 
Concentração 1 90601 double 
0.000000 
0.000000 
0.000000 
0.000000 
0.000000 
0.000000 
0.000000 
0.000000 
0.000000 
0.000000 
0.000000 
0.000000 
0.000000 
0.000000 
0.000000 
0.000000 
0.000000 
0.000000 
0.000000 
0.000000 
0.000000 
0.000000 
0.000000 
0.000000 
0.000000 
0.000000 
0.000000 
0.000000 
0.000000 
0.000000 
0.000000 
0.000000 
0.000000 
0.000000 
0.000000 
0.000000 
0.000000 
0.000000 
0.000000 
0.000000 
0.000000 
0.000000 
0.000000 
0.000000 
0.000000 
0.000000 
0.000000 
0.000000 
0.000000 
0.000000 
0.000000 
0.000000 
0.000000 
0.000000 
0.000000 
0.000000 
0.000000 
0.000000 
0.000000 
0.000000 
0.000000 
0.000000 
0.000000 
0.000000 
0.000001 
0.000001 
0.000001 
0.000001 
0.000001 
0.000001 
0.000001 
0.000001 
0.000001 
0.000001 
0.000001 
0.000001 
0.000001 
0.000001 
0.000002 
0.000002 
0.000002 
0.000002 
0.000002 
0.000002 
0.000003 
0.000003 
0.000003 
0.000003 
0.000003 
0.000004 
0.000004 
0.000004 
0.000005 
0.000005 
0.000005 
0.000006 
0.000006 
0.000007 
0.000007 
0.000008 
0.000008 
0.000009 
0.000010 
0.000010 
0.000011 
0.000012 
0.000013 
0.000014 
0.000015 
0.000016 
0.000017 
0.000018 
0.000019 
0.000020 
0.000022 
0.000023 
0.000025 
0.000026 
0.000028 
0.000030 
0.000032 
0.000034 
0.000036 
0.000039 
0.000041 
0.000044 
0.000046 
0.000049 
0.000052 
0.000055 
0.000059 
0.000062 
0.000066 
0.000070 
0.000074 
0.000079 
0.000083 
0.000088 
0.000093 
0.000098 
0.000104 
0.000110 
0.000116 
0.000122 
0.000129 
0.000136 
0.000144 
0.000151 
0.000159 
0.000168 
0.000177 
0.000186 
0.000195 
0.000205 
0.000216 
0.000227 
0.000238 
0.000250 
0.000262 
0.000275 
0.000288 
0.000302 
0.000316 
0.000331 
0.000346 
0.000362 
0.000378 
0.000395 
0.000413 
0.000431 
0.000450 
0.000470 
0.000490 
0.000511 
0.000532 
0.000554 
0.000577 
0.000601 
0.000625 
0.000650 
0.000676 
0.000702 
0.000730 
0.000757 
0.000786 
0.000816 
0.000846 
0.000877 
0.000909 
0.000941 
0.000974 
0.001008 
0.001043 
0.001079 
0.001115 
0.001153 
0.001191 
0.001229 
0.001269 
0.001309 
0.001350 
0.001392 
0.001434 
0.001478 
0.001522 
0.001566 
0.001612 
0.001658 
0.001704 
0.001752 
0.001800 
0.001848 
0.001898 
0.001948 
0.001998 
0.002049 
0.002101 
0.002153 
0.002205 
0.002258 
0.002312 
0.002366 
0.002420 
0.002475 
0.002530 
0.002585 
0.002641 
0.002697 
0.002753 
0.002809 
0.002866 
0.002922 
0.002979 
0.003036 
0.003093 
0.003150 
0.003207 
0.003265 
0.003321 
0.003378 
0.003435 
0.003492 
0.003548 
0.003604 
0.003660 
0.003716 
0.003771 
0.003827 
0.003881 
0.003935 
0.003989 
0.004043 
0.004095 
0.004148 
0.004199 
0.004251 
0.004301 
0.004351 
0.004400 
0.004449 
0.004496 
0.004543 
0.004589 
0.004635 
0.004679 
0.004723 
0.004765 
0.004807 
0.004848 
0.004888 
0.004927 
0.004964 
0.005001 
0.005037 
0.005072 
0.005105 
0.005137 
0.005169 
0.005199 
0.005228 
0.005255 
0.005282 
0.005307 
0.005331 
0.005354 
0.005375 
0.005395 
0.005414 
0.005432 
0.005448 
0.005463 
0.005477 
0.005489 
0.005500 
0.005510 
0.005518 
0.005525 
0.005530 
0.005534 
0.005537 
0.005539 
0.000000 
0.000000 
0.000000 
0.000000 
0.000000 
0.000000 
0.000000 
0.000000 
0.000000 
0.000000 
0.000000 
0.000000 
0.000000 
0.000000 
0.000000 
0.000000 
0.000000 
0.000000 
0.000000 
0.000000 
0.000000 
0.000000 
0.000000 
0.000000 
0.000000 
0.000000 
0.000000 
0.000000 
0.000000 
0.000000 
0.000000 
0.000000 
0.000000 
0.000000 
0.000000 
0.000000 
0.000000 
0.000000 
0.000000 
0.000000 
0.000000 
0.000000 
0.000000 
0.000000 
0.000000 
0.000000 
0.000000 
0.000000 
0.000000 
0.000000 
0.000000 
0.000000 
0.000000 
0.000000 
0.000000 
0.000000 
0.000001 
0.000001 
0.000001 
0.000001 
0.000001 
0.000001 
0.000001 
0.000001 
0.000001 
0.000001 
0.000001 
0.000001 
0.000001 
0.000002 
0.000002 
0.000002 
0.000002 
0.000002 
0.000002 
0.000003 
0.000003 
0.000003 
0.000003 
0.000003 
0.000004 
0.000004 
0.000004 
0.000005 
0.000005 
0.000006 
0.000006 
0.000006 
0.000007 
0.000008 
0.000008 
0.000009 
0.000009 
0.000010 
0.000011 
0.000012 
0.000013 
0.000014 
0.000015 
0.000016 
0.000017 
0.000018 
0.000019 
0.000021 
0.000022 
0.000024 
0.000026 
0.000027 
0.000029 
0.000031 
0.000033 
0.000036 
0.000038 
0.000041 
0.000044 
0.000047 
0.000050 
0.000053 
0.000057 
0.000060 
0.000064 
0.000068 
0.000073 
0.000077 
0.000082 
0.000088 
0.000093 
0.000099 
0.000105 
0.000111 
0.000118 
0.000125 
0.000133 
0.000141 
0.000149 
0.000158 
0.000167 
0.000177 
0.000187 
0.000198 
0.000209 
0.000221 
0.000233 
0.000246 
0.000260 
0.000274 
0.000289 
0.000304 
0.000320 
0.000337 
0.000355 
0.000373 
0.000393 
0.000413 
0.000434 
0.000455 
0.000478 
0.000502 
0.000526 
0.000552 
0.000578 
0.000606 
0.000634 
0.000664 
0.000695 
0.000727 
0.000760 
0.000794 
0.000830 
0.000866 
0.000904 
0.000943 
0.000984 
0.001026 
0.001069 
0.001113 
0.001159 
0.001207 
0.001255 
0.001305 
0.001357 
0.001410 
0.001465 
0.001521 
0.001578 
0.001637 
0.001698 
0.001760 
0.001824 
0.001889 
0.001956 
0.002024 
0.002094 
0.002166 
0.002239 
0.002313 
0.002389 
0.002467 
0.002546 
0.002627 
0.002709 
0.002793 
0.002878 
0.002965 
0.003053 
0.003142 
0.003233 
0.003326 
0.003419 
0.003514 
0.003610 
0.003708 
0.003807 
0.003906 
0.004007 
0.004110 
0.004213 
0.004317 
0.004422 
0.004529 
0.004636 
0.004744 
0.004852 
0.004962 
0.005072 
0.005183 
0.005294 
0.005406 
0.005519 
0.005632 
0.005745 
0.005859 
0.005972 
0.006086 
0.006200 
0.006315 
0.006429 
0.006543 
0.006657 
0.006771 
0.006884 
0.006998 
0.007111 
0.007223 
0.007335 
0.007446 
0.007557 
0.007667 
0.007776 
0.007885 
0.007993 
0.008099 
0.008205 
0.008309 
0.008413 
0.008515 
0.008616 
0.008716 
0.008814 
0.008911 
0.009006 
0.009100 
0.009192 
0.009283 
0.009372 
0.009459 
0.009544 
0.009628 
0.009709 
0.009789 
0.009866 
0.009942 
0.010015 
0.010087 
0.010156 
0.010223 
0.010287 
0.010350 
0.010410 
0.010468 
0.010523 
0.010576 
0.010626 
0.010674 
0.010720 
0.010763 
0.010803 
0.010841 
0.010876 
0.010908 
0.010938 
0.010965 
0.010990 
0.011012 
0.011031 
0.011047 
0.011061 
0.011072 
0.011080 
0.011086 
0.011089 
0.000000 
0.000000 
0.000000 
0.000000 
0.000000 
0.000000 
0.000000 
0.000000 
0.000000 
0.000000 
0.000000 
0.000000 
0.000000 
0.000000 
0.000000 
0.000000 
0.000000 
0.000000 
0.000000 
0.000000 
0.000000 
0.000000 
0.000000 
0.000000 
0.000000 
0.000000 
0.000000 
0.000000 
0.000000 
0.000000 
0.000000 
0.000000 
0.000000 
0.000000 
0.000000 
0.000000 
0.000000 
0.000000 
0.000000 
0.000000 
0.000000 
0.000000 
0.000000 
0.000000 
0.000000 
0.000000 
0.000000 
0.000000 
0.000000 
0.000000 
0.000000 
0.000000 
0.000001 
0.000001 
0.000001 
0.000001 
0.000001 
0.000001 
0.000001 
0.000001 
0.000001 
0.000001 
0.000001 
0.000001 
0.000002 
0.000002 
0.000002 
0.000002 
0.000002 
0.000002 
0.000003 
0.000003 
0.000003 
0.000003 
0.000004 
0.000004 
0.000004 
0.000004 
0.000005 
0.000005 
0.000006 
0.000006 
0.000007 
0.000007 
0.000008 
0.000008 
0.000009 
0.000010 
0.000011 
0.000011 
0.000012 
0.000013 
0.000014 
0.000015 
0.000016 
0.000018 
0.000019 
0.000021 
0.000022 
0.000024 
0.000025 
0.000027 
0.000029 
0.000031 
0.000034 
0.000036 
0.000039 
0.000041 
0.000044 
0.000047 
0.000051 
0.000054 
0.000058 
0.000062 
0.000066 
0.000070 
0.000075 
0.000080 
0.000086 
0.000091 
0.000097 
0.000103 
0.000110 
0.000117 
0.000125 
0.000132 
0.000141 
0.000149 
0.000159 
0.000168 
0.000179 
0.000190 
0.000201 
0.000213 
0.000226 
0.000239 
0.000253 
0.000268 
0.000283 
0.000299 
0.000316 
0.000334 
0.000352 
0.000372 
0.000392 
0.000414 
0.000436 
0.000460 
0.000484 
0.000510 
0.000536 
0.000564 
0.000593 
0.000624 
0.000655 
0.000688 
0.000722 
0.000758 
0.000795 
0.000834 
0.000874 
0.000915 
0.000959 
0.001003 
0.001050 
0.001098 
0.001148 
0.001200 
0.001253 
0.001309 
0.001366 
0.001425 
0.001486 
0.001549 
0.001614 
0.001682 
0.001751 
0.001822 
0.001896 
0.001971 
0.002049 
0.002129 
0.002211 
0.002296 
0.002383 
0.002472 
0.002563 
0.002657 
0.002753 
0.002851 
0.002952 
0.003055 
0.003160 
0.003268 
0.003378 
0.003490 
0.003605 
0.003722 
0.003841 
0.003963 
0.004087 
0.004213 
0.004341 
0.004471 
0.004604 
0.004739 
0.004875 
0.005014 
0.005155 
0.005298 
0.005443 
0.005590 
0.005738 
0.005888 
0.006040 
0.006194 
0.006349 
0.006506 
0.006664 
0.006824 
0.006985 
0.007147 
0.007311 
0.007475 
0.007641 
0.007807 
0.007975 
0.008143 
0.008312 
0.008481 
0.008652 
0.008822 
0.008993 
0.009164 
0.009336 
0.009507 
0.009678 
0.009850 
0.010021 
0.010192 
0.010362 
0.010532 
0.010702 
0.010870 
0.011038 
0.011205 
0.011372 
0.011537 
0.011701 
0.011863 
0.012025 
0.012184 
0.012343 
0.012500 
0.012655 
0.012808 
0.012959 
0.013109 
0.013256 
0.013401 
0.013544 
0.013685 
0.013823 
0.013959 
0.014092 
0.014222 
0.014350 
0.014475 
0.014597 
0.014717 
0.014833 
0.014946 
0.015056 
0.015163 
0.015266 
0.015367 
0.015464 
0.015557 
0.015647 
0.015733 
0.015816 
0.015895 
0.015971 
0.016043 
0.016111 
0.016175 
0.016235 
0.016292 
0.016345 
0.016393 
0.016438 
0.016479 
0.016516 
0.016548 
0.016577 
0.016602 
0.016622 
0.016638 
0.016651 
0.016659 
0.016663 
0.000000 
0.000000 
0.000000 
0.000000 
0.000000 
0.000000 
0.000000 
0.000000 
0.000000 
0.000000 
0.000000 
0.000000 
0.000000 
0.000000 
0.000000 
0.000000 
0.000000 
0.000000 
0.000000 
0.000000 
0.000000 
0.000000 
0.000000 
0.000000 
0.000000 
0.000000 
0.000000 
0.000000 
0.000000 
0.000000 
0.000000 
0.000000 
0.000000 
0.000000 
0.000000 
0.000000 
0.000000 
0.000000 
0.000000 
0.000000 
0.000000 
0.000000 
0.000000 
0.000000 
0.000000 
0.000000 
0.000000 
0.000000 
0.000001 
0.000001 
0.000001 
0.000001 
0.000001 
0.000001 
0.000001 
0.000001 
0.000001 
0.000001 
0.000001 
0.000001 
0.000001 
0.000002 
0.000002 
0.000002 
0.000002 
0.000002 
0.000002 
0.000003 
0.000003 
0.000003 
0.000003 
0.000004 
0.000004 
0.000004 
0.000005 
0.000005 
0.000006 
0.000006 
0.000007 
0.000007 
0.000008 
0.000008 
0.000009 
0.000010 
0.000010 
0.000011 
0.000012 
0.000013 
0.000014 
0.000015 
0.000017 
0.000018 
0.000019 
0.000021 
0.000022 
0.000024 
0.000026 
0.000028 
0.000030 
0.000032 
0.000034 
0.000037 
0.000039 
0.000042 
0.000045 
0.000049 
0.000052 
0.000056 
0.000060 
0.000064 
0.000068 
0.000073 
0.000078 
0.000083 
0.000089 
0.000095 
0.000101 
0.000108 
0.000115 
0.000123 
0.000131 
0.000139 
0.000148 
0.000158 
0.000168 
0.000179 
0.000190 
0.000202 
0.000214 
0.000227 
0.000241 
0.000256 
0.000271 
0.000287 
0.000304 
0.000322 
0.000341 
0.000361 
0.000381 
0.000403 
0.000426 
0.000450 
0.000475 
0.000501 
0.000529 
0.000558 
0.000588 
0.000620 
0.000653 
0.000687 
0.000723 
0.000760 
0.000800 
0.000840 
0.000883 
0.000927 
0.000973 
0.001021 
0.001071 
0.001123 
0.001177 
0.001233 
0.001291 
0.001352 
0.001414 
0.001479 
0.001546 
0.001616 
0.001688 
0.001762 
0.001839 
0.001919 
0.002001 
0.002086 
0.002173 
0.002263 
0.002356 
0.002452 
0.002551 
0.002653 
0.002757 
0.002865 
0.002975 
0.003089 
0.003205 
0.003325 
0.003448 
0.003573 
0.003702 
0.003834 
0.003969 
0.004108 
0.004249 
0.004393 
0.004541 
0.004692 
0.004846 
0.005002 
0.005162 
0.005325 
0.005491 
0.005660 
0.005832 
0.006007 
0.006185 
0.006365 
0.006548 
0.006734 
0.006923 
0.007115 
0.007308 
0.007505 
0.007704 
0.007905 
0.008108 
0.008314 
0.008521 
0.008731 
0.008943 
0.009157 
0.009372 
0.009589 
0.009807 
0.010027 
0.010249 
0.010471 
0.010695 
0.010920 
0.011146 
0.011372 
0.011600 
0.011827 
0.012056 
0.012284 
0.012513 
0.012742 
0.012971 
0.013200 
0.013428 
0.013656 
0.013884 
0.014110 
0.014336 
0.014561 
0.014785 
0.015008 
0.015230 
0.015450 
0.015669 
0.015886 
0.016101 
0.016314 
0.016525 
0.016734 
0.016940 
0.017145 
0.017346 
0.017545 
0.017742 
0.017935 
0.018125 
0.018313 
0.018497 
0.018677 
0.018855 
0.019029 
0.019199 
0.019365 
0.019528 
0.019686 
0.019841 
0.019992 
0.020138 
0.020280 
0.020418 
0.020552 
0.020681 
0.020805 
0.020925 
0.021040 
0.021150 
0.021255 
0.021356 
0.021451 
0.021542 
0.021627 
0.021707 
0.021783 
0.021853 
0.021917 
0.021977 
0.022031 
0.022080 
0.022123 
0.022161 
0.022194 
0.022221 
0.022243 
0.022260 
0.022271 
0.022276 
0.000000 
0.000000 
0.000000 
0.000000 
0.000000 
0.000000 
0.000000 
0.000000 
0.000000 
0.000000 
0.000000 
0.000000 
0.000000 
0.000000 
0.000000 
0.000000 
0.000000 
0.000000 
0.000000 
0.000000 
0.000000 
0.000000 
0.000000 
0.000000 
0.000000 
0.000000 
0.000000 
0.000000 
0.000000 
0.000000 
0.000000 
0.000000 
0.000000 
0.000000 
0.000000 
0.000000 
0.000000 
0.000000 
0.000000 
0.000000 
0.000000 
0.000000 
0.000000 
0.000000 
0.000000 
0.000000 
0.000001 
0.000001 
0.000001 
0.000001 
0.000001 
0.000001 
0.000001 
0.000001 
0.000001 
0.000001 
0.000001 
0.000001 
0.000002 
0.000002 
0.000002 
0.000002 
0.000002 
0.000002 
0.000003 
0.000003 
0.000003 
0.000003 
0.000004 
0.000004 
0.000004 
0.000005 
0.000005 
0.000006 
0.000006 
0.000007 
0.000007 
0.000008 
0.000008 
0.000009 
0.000010 
0.000011 
0.000011 
0.000012 
0.000013 
0.000014 
0.000016 
0.000017 
0.000018 
0.000019 
0.000021 
0.000023 
0.000024 
0.000026 
0.000028 
0.000030 
0.000033 
0.000035 
0.000038 
0.000041 
0.000044 
0.000047 
0.000050 
0.000054 
0.000058 
0.000062 
0.000066 
0.000071 
0.000076 
0.000081 
0.000087 
0.000093 
0.000099 
0.000106 
0.000113 
0.000121 
0.000129 
0.000137 
0.000146 
0.000156 
0.000166 
0.000177 
0.000188 
0.000200 
0.000213 
0.000227 
0.000241 
0.000256 
0.000272 
0.000288 
0.000306 
0.000324 
0.000344 
0.000364 
0.000386 
0.000409 
0.000432 
0.000457 
0.000484 
0.000511 
0.000540 
0.000571 
0.000602 
0.000636 
0.000671 
0.000707 
0.000745 
0.000785 
0.000827 
0.000871 
0.000916 
0.000964 
0.001013 
0.001065 
0.001119 
0.001175 
0.001233 
0.001294 
0.001357 
0.001423 
0.001491 
0.001562 
0.001635 
0.001711 
0.001790 
0.001872 
0.001957 
0.002045 
0.002136 
0.002230 
0.002328 
0.002428 
0.002532 
0.002639 
0.002750 
0.002864 
0.002981 
0.003102 
0.003227 
0.003355 
0.003487 
0.003623 
0.003762 
0.003906 
0.004053 
0.004203 
0.004358 
0.004517 
0.004679 
0.004846 
0.005016 
0.005190 
0.005368 
0.005550 
0.005736 
0.005926 
0.006120 
0.006317 
0.006519 
0.006724 
0.006933 
0.007145 
0.007362 
0.007582 
0.007805 
0.008032 
0.008263 
0.008497 
0.008734 
0.008975 
0.009218 
0.009465 
0.009715 
0.009967 
0.010223 
0.010481 
0.010742 
0.011006 
0.011271 
0.011539 
0.011810 
0.012082 
0.012356 
0.012632 
0.012910 
0.013189 
0.013470 
0.013751 
0.014034 
0.014318 
0.014603 
0.014889 
0.015175 
0.015461 
0.015748 
0.016034 
0.016321 
0.016607 
0.016893 
0.017179 
0.017463 
0.017747 
0.018030 
0.018311 
0.018592 
0.018870 
0.019147 
0.019423 
0.019696 
0.019967 
0.020236 
0.020502 
0.020766 
0.021027 
0.021285 
0.021540 
0.021792 
0.022041 
0.022286 
0.022527 
0.022765 
0.022999 
0.023229 
0.023454 
0.023676 
0.023892 
0.024105 
0.024312 
0.024515 
0.024713 
0.024906 
0.025094 
0.025277 
0.025454 
0.025626 
0.025792 
0.025953 
0.026108 
0.026257 
0.026401 
0.026538 
0.026669 
0.026795 
0.026914 
0.027026 
0.027133 
0.027233 
0.027327 
0.027414 
0.027495 
0.027569 
0.027636 
0.027697 
0.027751 
0.027799 
0.027840 
0.027874 
0.027901 
0.027921 
0.027935 
0.027942 
0.000000 
0.000000 
0.000000 
0.000000 
0.000000 
0.000000 
0.000000 
0.000000 
0.000000 
0.000000 
0.000000 
0.000000 
0.000000 
0.000000 
0.000000 
0.000000 
0.000000 
0.000000 
0.000000 
0.000000 
0.000000 
0.000000 
0.000000 
0.000000 
0.000000 
0.000000 
0.000000 
0.000000 
0.000000 
0.000000 
0.000000 
0.000000 
0.000000 
0.000000 
0.000000 
0.000000 
0.000000 
0.000000 
0.000000 
0.000000 
0.000000 
0.000000 
0.000000 
0.000001 
0.000001 
0.000001 
0.000001 
0.000001 
0.000001 
0.000001 
0.000001 
0.000001 
0.000001 
0.000001 
0.000001 
0.000001 
0.000002 
0.000002 
0.000002 
0.000002 
0.000002 
0.000002 
0.000003 
0.000003 
0.000003 
0.000004 
0.000004 
0.000004 
0.000005 
0.000005 
0.000005 
0.000006 
0.000006 
0.000007 
0.000007 
0.000008 
0.000009 
0.000009 
0.000010 
0.000011 
0.000012 
0.000013 
0.000014 
0.000015 
0.000016 
0.000018 
0.000019 
0.000020 
0.000022 
0.000024 
0.000026 
0.000028 
0.000030 
0.000032 
0.000035 
0.000037 
0.000040 
0.000043 
0.000046 
0.000050 
0.000053 
0.000057 
0.000061 
0.000066 
0.000070 
0.000076 
0.000081 
0.000087 
0.000093 
0.000099 
0.000106 
0.000113 
0.000121 
0.000129 
0.000138 
0.000147 
0.000157 
0.000168 
0.000179 
0.000191 
0.000203 
0.000216 
0.000230 
0.000245 
0.000260 
0.000277 
0.000294 
0.000312 
0.000332 
0.000352 
0.000373 
0.000396 
0.000420 
0.000445 
0.000471 
0.000499 
0.000528 
0.000558 
0.000591 
0.000624 
0.000660 
0.000697 
0.000735 
0.000776 
0.000819 
0.000863 
0.000910 
0.000958 
0.001009 
0.001062 
0.001118 
0.001176 
0.001236 
0.001299 
0.001365 
0.001433 
0.001504 
0.001578 
0.001655 
0.001735 
0.001818 
0.001904 
0.001993 
0.002086 
0.002182 
0.002282 
0.002385 
0.002492 
0.002603 
0.002717 
0.002836 
0.002958 
0.003084 
0.003214 
0.003349 
0.003487 
0.003630 
0.003777 
0.003928 
0.004084 
0.004244 
0.004409 
0.004578 
0.004752 
0.004931 
0.005114 
0.005301 
0.005494 
0.005691 
0.005892 
0.006099 
0.006310 
0.006526 
0.006746 
0.006972 
0.007202 
0.007436 
0.007675 
0.007919 
0.008167 
0.008420 
0.008678 
0.008939 
0.009205 
0.009476 
0.009750 
0.010029 
0.010312 
0.010598 
0.010889 
0.011183 
0.011482 
0.011783 
0.012088 
0.012397 
0.012708 
0.013023 
0.013341 
0.013662 
0.013985 
0.014311 
0.014639 
0.014970 
0.015302 
0.015637 
0.015973 
0.016311 
0.016651 
0.016992 
0.017334 
0.017676 
0.018020 
0.018364 
0.018709 
0.019054 
0.019398 
0.019743 
0.020087 
0.020431 
0.020774 
0.021116 
0.021457 
0.021797 
0.022135 
0.022472 
0.022807 
0.023139 
0.023470 
0.023798 
0.024123 
0.024446 
0.024765 
0.025082 
0.025395 
0.025705 
0.026010 
0.026312 
0.026610 
0.026904 
0.027194 
0.027479 
0.027759 
0.028034 
0.028304 
0.028569 
0.028829 
0.029083 
0.029332 
0.029575 
0.029812 
0.030043 
0.030268 
0.030487 
0.030699 
0.030905 
0.031104 
0.031296 
0.031482 
0.031660 
0.031832 
0.031996 
0.032153 
0.032303 
0.032445 
0.032580 
0.032707 
0.032827 
0.032939 
0.033043 
0.033140 
0.033229 
0.033309 
0.033382 
0.033447 
0.033504 
0.033552 
0.033593 
0.033626 
0.033650 
0.033666 
0.033674 
0.000000 
0.000000 
0.000000 
0.000000 
0.000000 
0.000000 
0.000000 
0.000000 
0.000000 
0.000000 
0.000000 
0.000000 
0.000000 
0.000000 
0.000000 
0.000000 
0.000000 
0.000000 
0.000000 
0.000000 
0.000000 
0.000000 
0.000000 
0.000000 
0.000000 
0.000000 
0.000000 
0.000000 
0.000000 
0.000000 
0.000000 
0.000000 
0.000000 
0.000000 
0.000000 
0.000000 
0.000000 
0.000000 
0.000000 
0.000000 
0.000000 
0.000000 
0.000001 
0.000001 
0.000001 
0.000001 
0.000001 
0.000001 
0.000001 
0.000001 
0.000001 
0.000001 
0.000001 
0.000001 
0.000002 
0.000002 
0.000002 
0.000002 
0.000002 
0.000003 
0.000003 
0.000003 
0.000003 
0.000004 
0.000004 
0.000004 
0.000005 
0.000005 
0.000005 
0.000006 
0.000006 
0.000007 
0.000007 
0.000008 
0.000009 
0.000010 
0.000010 
0.000011 
0.000012 
0.000013 
0.000014 
0.000015 
0.000017 
0.000018 
0.000019 
0.000021 
0.000023 
0.000024 
0.000026 
0.000028 
0.000031 
0.000033 
0.000036 
0.000038 
0.000041 
0.000044 
0.000048 
0.000051 
0.000055 
0.000059 
0.000063 
0.000068 
0.000073 
0.000078 
0.000084 
0.000090 
0.000096 
0.000103 
0.000110 
0.000118 
0.000126 
0.000135 
0.000144 
0.000154 
0.000165 
0.000176 
0.000188 
0.000200 
0.000213 
0.000227 
0.000242 
0.000258 
0.000274 
0.000292 
0.000310 
0.000330 
0.000350 
0.000372 
0.000395 
0.000419 
0.000445 
0.000472 
0.000500 
0.000530 
0.000561 
0.000594 
0.000629 
0.000665 
0.000703 
0.000743 
0.000785 
0.000829 
0.000875 
0.000924 
0.000974 
0.001027 
0.001082 
0.001140 
0.001201 
0.001264 
0.001330 
0.001398 
0.001470 
0.001545 
0.001623 
0.001704 
0.001788 
0.001876 
0.001967 
0.002062 
0.002160 
0.002263 
0.002369 
0.002479 
0.002593 
0.002711 
0.002834 
0.002960 
0.003091 
0.003227 
0.003367 
0.003512 
0.003661 
0.003815 
0.003975 
0.004139 
0.004308 
0.004482 
0.004661 
0.004845 
0.005035 
0.005229 
0.005429 
0.005635 
0.005846 
0.006062 
0.006284 
0.006511 
0.006744 
0.006982 
0.007226 
0.007475 
0.007730 
0.007990 
0.008256 
0.008527 
0.008803 
0.009085 
0.009373 
0.009665 
0.009963 
0.010266 
0.010575 
0.010888 
0.011206 
0.011529 
0.011857 
0.012190 
0.012527 
0.012869 
0.013215 
0.013566 
0.013920 
0.014279 
0.014641 
0.015007 
0.015377 
0.015750 
0.016127 
0.016506 
0.016889 
0.017274 
0.017661 
0.018052 
0.018444 
0.018838 
0.019234 
0.019632 
0.020031 
0.020432 
0.020833 
0.021236 
0.021638 
0.022042 
0.022445 
0.022848 
0.023252 
0.023654 
0.024056 
0.024457 
0.024857 
0.025256 
0.025653 
0.026048 
0.026441 
0.026832 
0.027220 
0.027606 
0.027989 
0.028369 
0.028745 
0.029118 
0.029487 
0.029852 
0.030213 
0.030570 
0.030922 
0.031269 
0.031612 
0.031949 
0.032281 
0.032607 
0.032928 
0.033243 
0.033551 
0.033854 
0.034150 
0.034439 
0.034722 
0.034998 
0.035267 
0.035528 
0.035783 
0.036030 
0.036269 
0.036500 
0.036724 
0.036940 
0.037147 
0.037347 
0.037538 
0.037720 
0.037895 
0.038060 
0.038217 
0.038365 
0.038504 
0.038634 
0.038755 
0.038867 
0.038970 
0.039064 
0.039149 
0.039224 
0.039290 
0.039347 
0.039394 
0.039432 
0.039460 
0.039479 
0.039488 
0.000000 
0.000000 
0.000000 
0.000000 
0.000000 
0.000000 
0.000000 
0.000000 
0.000000 
0.000000 
0.000000 
0.000000 
0.000000 
0.000000 
0.000000 
0.000000 
0.000000 
0.000000 
0.000000 
0.000000 
0.000000 
0.000000 
0.000000 
0.000000 
0.000000 
0.000000 
0.000000 
0.000000 
0.000000 
0.000000 
0.000000 
0.000000 
0.000000 
0.000000 
0.000000 
0.000000 
0.000000 
0.000000 
0.000000 
0.000000 
0.000001 
0.000001 
0.000001 
0.000001 
0.000001 
0.000001 
0.000001 
0.000001 
0.000001 
0.000001 
0.000001 
0.000001 
0.000002 
0.000002 
0.000002 
0.000002 
0.000002 
0.000002 
0.000003 
0.000003 
0.000003 
0.000003 
0.000004 
0.000004 
0.000005 
0.000005 
0.000005 
0.000006 
0.000006 
0.000007 
0.000007 
0.000008 
0.000009 
0.000010 
0.000010 
0.000011 
0.000012 
0.000013 
0.000014 
0.000015 
0.000017 
0.000018 
0.000019 
0.000021 
0.000023 
0.000025 
0.000027 
0.000029 
0.000031 
0.000033 
0.000036 
0.000039 
0.000042 
0.000045 
0.000048 
0.000052 
0.000056 
0.000060 
0.000064 
0.000069 
0.000074 
0.000080 
0.000086 
0.000092 
0.000098 
0.000105 
0.000113 
0.000121 
0.000129 
0.000138 
0.000148 
0.000158 
0.000169 
0.000181 
0.000193 
0.000206 
0.000220 
0.000234 
0.000250 
0.000266 
0.000283 
0.000302 
0.000321 
0.000341 
0.000363 
0.000386 
0.000410 
0.000436 
0.000462 
0.000491 
0.000520 
0.000552 
0.000585 
0.000620 
0.000656 
0.000695 
0.000735 
0.000778 
0.000822 
0.000869 
0.000918 
0.000969 
0.001023 
0.001080 
0.001139 
0.001201 
0.001265 
0.001333 
0.001403 
0.001477 
0.001554 
0.001634 
0.001717 
0.001805 
0.001895 
0.001990 
0.002088 
0.002190 
0.002297 
0.002407 
0.002522 
0.002641 
0.002765 
0.002893 
0.003026 
0.003163 
0.003306 
0.003453 
0.003606 
0.003763 
0.003926 
0.004095 
0.004268 
0.004448 
0.004632 
0.004823 
0.005019 
0.005221 
0.005429 
0.005643 
0.005863 
0.006090 
0.006322 
0.006560 
0.006805 
0.007056 
0.007313 
0.007576 
0.007846 
0.008122 
0.008404 
0.008693 
0.008988 
0.009289 
0.009596 
0.009910 
0.010230 
0.010556 
0.010889 
0.011227 
0.011571 
0.011921 
0.012278 
0.012639 
0.013007 
0.013380 
0.013759 
0.014142 
0.014532 
0.014926 
0.015325 
0.015729 
0.016138 
0.016551 
0.016968 
0.017390 
0.017816 
0.018245 
0.018678 
0.019115 
0.019555 
0.019998 
0.020444 
0.020892 
0.021343 
0.021796 
0.022251 
0.022708 
0.023167 
0.023627 
0.024087 
0.024549 
0.025011 
0.025474 
0.025936 
0.026399 
0.026861 
0.027322 
0.027783 
0.028242 
0.028700 
0.029157 
0.029611 
0.030063 
0.030513 
0.030960 
0.031405 
0.031846 
0.032284 
0.032718 
0.033148 
0.033574 
0.033996 
0.034413 
0.034826 
0.035233 
0.035635 
0.036032 
0.036423 
0.036807 
0.037186 
0.037559 
0.037924 
0.038283 
0.038635 
0.038980 
0.039318 
0.039648 
0.039970 
0.040285 
0.040591 
0.040889 
0.041179 
0.041460 
0.041733 
0.041996 
0.042251 
0.042497 
0.042733 
0.042960 
0.043178 
0.043386 
0.043584 
0.043772 
0.043951 
0.044119 
0.044277 
0.044426 
0.044563 
0.044691 
0.044808 
0.044915 
0.045011 
0.045097 
0.045172 
0.045236 
0.045290 
0.045333 
0.045365 
0.045387 
0.045397 
0.000000 
0.000000 
0.000000 
0.000000 
0.000000 
0.000000 
0.000000 
0.000000 
0.000000 
0.000000 
0.000000 
0.000000 
0.000000 
0.000000 
0.000000 
0.000000 
0.000000 
0.000000 
0.000000 
0.000000 
0.000000 
0.000000 
0.000000 
0.000000 
0.000000 
0.000000 