# vtk DataFile Version 3.0
results.vtk
ASCII
DATASET RECTILINEAR_GRID
DIMENSIONS 301 301 1
X_COORDINATES 301 double
0.000000 0.003333 0.006667 0.010000 0.013333 0.016667 0.020000 0.023333 0.026667 0.030000 0.033333 0.036667 0.040000 0.043333 0.046667 0.050000 0.053333 0.056667 0.060000 0.063333 0.066667 0.070000 0.073333 0.076667 0.080000 0.083333 0.086667 0.090000 0.093333 0.096667 0.100000 0.103333 0.106667 0.110000 0.113333 0.116667 0.120000 0.123333 0.126667 0.130000 0.133333 0.136667 0.140000 0.143333 0.146667 0.150000 0.153333 0.156667 0.160000 0.163333 0.166667 0.170000 0.173333 0.176667 0.180000 0.183333 0.186667 0.190000 0.193333 0.196667 0.200000 0.203333 0.206667 0.210000 0.213333 0.216667 0.220000 0.223333 0.226667 0.230000 0.233333 0.236667 0.240000 0.243333 0.246667 0.250000 0.253333 0.256667 0.260000 0.263333 0.266667 0.270000 0.273333 0.276667 0.280000 0.283333 0.286667 0.290000 0.293333 0.296667 0.300000 0.303333 0.306667 0.310000 0.313333 0.316667 0.320000 0.323333 0.326667 0.330000 0.333333 0.336667 0.340000 0.343333 0.346667 0.350000 0.353333 0.356667 0.360000 0.363333 0.366667 0.370000 0.373333 0.376667 0.380000 0.383333 0.386667 0.390000 0.393333 0.396667 0.400000 0.403333 0.406667 0.410000 0.413333 0.416667 0.420000 0.423333 0.426667 0.430000 0.433333 0.436667 0.440000 0.443333 0.446667 0.450000 0.453333 0.456667 0.460000 0.463333 0.466667 0.470000 0.473333 0.476667 0.480000 0.483333 0.486667 0.490000 0.493333 0.496667 0.500000 0.503333 0.506667 0.510000 0.513333 0.516667 0.520000 0.523333 0.526667 0.530000 0.533333 0.536667 0.540000 0.543333 0.546667 0.550000 0.553333 0.556667 0.560000 0.563333 0.566667 0.570000 0.573333 0.576667 0.580000 0.583333 0.586667 0.590000 0.593333 0.596667 0.600000 0.603333 0.606667 0.610000 0.613333 0.616667 0.620000 0.623333 0.626667 0.630000 0.633333 0.636667 0.640000 0.643333 0.646667 0.650000 0.653333 0.656667 0.660000 0.663333 0.666667 0.670000 0.673333 0.676667 0.680000 0.683333 0.686667 0.690000 0.693333 0.696667 0.700000 0.703333 0.706667 0.710000 0.713333 0.716667 0.720000 0.723333 0.726667 0.730000 0.733333 0.736667 0.740000 0.743333 0.746667 0.750000 0.753333 0.756667 0.760000 0.763333 0.766667 0.770000 0.773333 0.776667 0.780000 0.783333 0.786667 0.790000 0.793333 0.796667 0.800000 0.803333 0.806667 0.810000 0.813333 0.816667 0.820000 0.823333 0.826667 0.830000 0.833333 0.836667 0.840000 0.843333 0.846667 0.850000 0.853333 0.856667 0.860000 0.863333 0.866667 0.870000 0.873333 0.876667 0.880000 0.883333 0.886667 0.890000 0.893333 0.896667 0.900000 0.903333 0.906667 0.910000 0.913333 0.916667 0.920000 0.923333 0.926667 0.930000 0.933333 0.936667 0.940000 0.943333 0.946667 0.950000 0.953333 0.956667 0.960000 0.963333 0.966667 0.970000 0.973333 0.976667 0.980000 0.983333 0.986667 0.990000 0.993333 0.996667 1.000000 
Y_COORDINATES 301 double
0.000000 0.003333 0.006667 0.010000 0.013333 0.016667 0.020000 0.023333 0.026667 0.030000 0.033333 0.036667 0.040000 0.043333 0.046667 0.050000 0.053333 0.056667 0.060000 0.063333 0.066667 0.070000 0.073333 0.076667 0.080000 0.083333 0.086667 0.090000 0.093333 0.096667 0.100000 0.103333 0.106667 0.110000 0.113333 0.116667 0.120000 0.123333 0.126667 0.130000 0.133333 0.136667 0.140000 0.143333 0.146667 0.150000 0.153333 0.156667 0.160000 0.163333 0.166667 0.170000 0.173333 0.176667 0.180000 0.183333 0.186667 0.190000 0.193333 0.196667 0.200000 0.203333 0.206667 0.210000 0.213333 0.216667 0.220000 0.223333 0.226667 0.230000 0.233333 0.236667 0.240000 0.243333 0.246667 0.250000 0.253333 0.256667 0.260000 0.263333 0.266667 0.270000 0.273333 0.276667 0.280000 0.283333 0.286667 0.290000 0.293333 0.296667 0.300000 0.303333 0.306667 0.310000 0.313333 0.316667 0.320000 0.323333 0.326667 0.330000 0.333333 0.336667 0.340000 0.343333 0.346667 0.350000 0.353333 0.356667 0.360000 0.363333 0.366667 0.370000 0.373333 0.376667 0.380000 0.383333 0.386667 0.390000 0.393333 0.396667 0.400000 0.403333 0.406667 0.410000 0.413333 0.416667 0.420000 0.423333 0.426667 0.430000 0.433333 0.436667 0.440000 0.443333 0.446667 0.450000 0.453333 0.456667 0.460000 0.463333 0.466667 0.470000 0.473333 0.476667 0.480000 0.483333 0.486667 0.490000 0.493333 0.496667 0.500000 0.503333 0.506667 0.510000 0.513333 0.516667 0.520000 0.523333 0.526667 0.530000 0.533333 0.536667 0.540000 0.543333 0.546667 0.550000 0.553333 0.556667 0.560000 0.563333 0.566667 0.570000 0.573333 0.576667 0.580000 0.583333 0.586667 0.590000 0.593333 0.596667 0.600000 0.603333 0.606667 0.610000 0.613333 0.616667 0.620000 0.623333 0.626667 0.630000 0.633333 0.636667 0.640000 0.643333 0.646667 0.650000 0.653333 0.656667 0.660000 0.663333 0.666667 0.670000 0.673333 0.676667 0.680000 0.683333 0.686667 0.690000 0.693333 0.696667 0.700000 0.703333 0.706667 0.710000 0.713333 0.716667 0.720000 0.723333 0.726667 0.730000 0.733333 0.736667 0.740000 0.743333 0.746667 0.750000 0.753333 0.756667 0.760000 0.763333 0.766667 0.770000 0.773333 0.776667 0.780000 0.783333 0.786667 0.790000 0.793333 0.796667 0.800000 0.803333 0.806667 0.810000 0.813333 0.816667 0.820000 0.823333 0.826667 0.830000 0.833333 0.836667 0.840000 0.843333 0.846667 0.850000 0.853333 0.856667 0.860000 0.863333 0.866667 0.870000 0.873333 0.876667 0.880000 0.883333 0.886667 0.890000 0.893333 0.896667 0.900000 0.903333 0.906667 0.910000 0.913333 0.916667 0.920000 0.923333 0.926667 0.930000 0.933333 0.936667 0.940000 0.943333 0.946667 0.950000 0.953333 0.956667 0.960000 0.963333 0.966667 0.970000 0.973333 0.976667 0.980000 0.983333 0.986667 0.990000 0.993333 0.996667 1.000000 
Z_COORDINATES 1 double
0
POINT_DATA 90601 
FIELD FieldData 1 
Concentração 1 90601 double 
0.000000 
0.000000 
0.000000 
0.000000 
0.000000 
0.000000 
0.000000 
0.000000 
0.000000 
0.000000 
0.000000 
0.000000 
0.000000 
0.000000 
0.000000 
0.000000 
0.000000 
0.000000 
0.000000 
0.000000 
0.000000 
0.000000 
0.000000 
0.000000 
0.000000 
0.000000 
0.000000 
0.000000 
0.000000 
0.000000 
0.000000 
0.000000 
0.000000 
0.000000 
0.000000 
0.000000 
0.000000 
0.000000 
0.000000 
0.000000 
0.000000 
0.000000 
0.000000 
0.000000 
0.000000 
0.000000 
0.000000 
0.000000 
0.000000 
0.000000 
0.000000 
0.000000 
0.000000 
0.000000 
0.000000 
0.000000 
0.000000 
0.000000 
0.000000 
0.000000 
0.000000 
0.000000 
0.000000 
0.000000 
0.000000 
0.000000 
0.000000 
0.000000 
0.000000 
0.000000 
0.000000 
0.000000 
0.000000 
0.000000 
0.000000 
0.000000 
0.000001 
0.000001 
0.000001 
0.000001 
0.000001 
0.000001 
0.000001 
0.000001 
0.000001 
0.000001 
0.000001 
0.000001 
0.000001 
0.000002 
0.000002 
0.000002 
0.000002 
0.000002 
0.000002 
0.000002 
0.000003 
0.000003 
0.000003 
0.000003 
0.000003 
0.000004 
0.000004 
0.000004 
0.000005 
0.000005 
0.000005 
0.000006 
0.000006 
0.000007 
0.000007 
0.000008 
0.000008 
0.000009 
0.000009 
0.000010 
0.000011 
0.000011 
0.000012 
0.000013 
0.000014 
0.000015 
0.000016 
0.000017 
0.000018 
0.000019 
0.000020 
0.000021 
0.000023 
0.000024 
0.000026 
0.000027 
0.000029 
0.000031 
0.000033 
0.000035 
0.000037 
0.000039 
0.000041 
0.000044 
0.000046 
0.000049 
0.000052 
0.000055 
0.000058 
0.000061 
0.000065 
0.000068 
0.000072 
0.000076 
0.000080 
0.000085 
0.000089 
0.000094 
0.000099 
0.000104 
0.000110 
0.000115 
0.000121 
0.000127 
0.000134 
0.000140 
0.000147 
0.000154 
0.000162 
0.000170 
0.000178 
0.000186 
0.000195 
0.000204 
0.000213 
0.000223 
0.000233 
0.000244 
0.000254 
0.000266 
0.000277 
0.000289 
0.000301 
0.000314 
0.000327 
0.000341 
0.000355 
0.000369 
0.000384 
0.000399 
0.000415 
0.000431 
0.000448 
0.000465 
0.000482 
0.000500 
0.000518 
0.000537 
0.000557 
0.000577 
0.000597 
0.000618 
0.000639 
0.000661 
0.000683 
0.000705 
0.000729 
0.000752 
0.000776 
0.000801 
0.000826 
0.000851 
0.000877 
0.000903 
0.000930 
0.000957 
0.000985 
0.001013 
0.001042 
0.001070 
0.001100 
0.001129 
0.001159 
0.001190 
0.001220 
0.001251 
0.001283 
0.001314 
0.001346 
0.001379 
0.001411 
0.001444 
0.001477 
0.001510 
0.001543 
0.001577 
0.001611 
0.001645 
0.001679 
0.001713 
0.001747 
0.001781 
0.001816 
0.001850 
0.001885 
0.001919 
0.001953 
0.001988 
0.002022 
0.002056 
0.002090 
0.002124 
0.002158 
0.002192 
0.002225 
0.002258 
0.002291 
0.002324 
0.002356 
0.002388 
0.002420 
0.002452 
0.002483 
0.002513 
0.002543 
0.002573 
0.002603 
0.002632 
0.002660 
0.002688 
0.002715 
0.002742 
0.002768 
0.002794 
0.002819 
0.002843 
0.002867 
0.002890 
0.002912 
0.002934 
0.002955 
0.002976 
0.002995 
0.003014 
0.003032 
0.003049 
0.003066 
0.003082 
0.003096 
0.003111 
0.003124 
0.003136 
0.003148 
0.003158 
0.003168 
0.003177 
0.003185 
0.003193 
0.003199 
0.003204 
0.003209 
0.003212 
0.003215 
0.003217 
0.003218 
0.000000 
0.000000 
0.000000 
0.000000 
0.000000 
0.000000 
0.000000 
0.000000 
0.000000 
0.000000 
0.000000 
0.000000 
0.000000 
0.000000 
0.000000 
0.000000 
0.000000 
0.000000 
0.000000 
0.000000 
0.000000 
0.000000 
0.000000 
0.000000 
0.000000 
0.000000 
0.000000 
0.000000 
0.000000 
0.000000 
0.000000 
0.000000 
0.000000 
0.000000 
0.000000 
0.000000 
0.000000 
0.000000 
0.000000 
0.000000 
0.000000 
0.000000 
0.000000 
0.000000 
0.000000 
0.000000 
0.000000 
0.000000 
0.000000 
0.000000 
0.000000 
0.000000 
0.000000 
0.000000 
0.000000 
0.000000 
0.000000 
0.000000 
0.000000 
0.000000 
0.000000 
0.000000 
0.000000 
0.000000 
0.000000 
0.000000 
0.000000 
0.000001 
0.000001 
0.000001 
0.000001 
0.000001 
0.000001 
0.000001 
0.000001 
0.000001 
0.000001 
0.000001 
0.000001 
0.000001 
0.000002 
0.000002 
0.000002 
0.000002 
0.000002 
0.000002 
0.000002 
0.000003 
0.000003 
0.000003 
0.000003 
0.000004 
0.000004 
0.000004 
0.000004 
0.000005 
0.000005 
0.000006 
0.000006 
0.000006 
0.000007 
0.000007 
0.000008 
0.000009 
0.000009 
0.000010 
0.000011 
0.000011 
0.000012 
0.000013 
0.000014 
0.000015 
0.000016 
0.000017 
0.000019 
0.000020 
0.000021 
0.000023 
0.000024 
0.000026 
0.000028 
0.000029 
0.000031 
0.000033 
0.000036 
0.000038 
0.000040 
0.000043 
0.000046 
0.000049 
0.000052 
0.000055 
0.000058 
0.000062 
0.000066 
0.000070 
0.000074 
0.000079 
0.000083 
0.000088 
0.000093 
0.000099 
0.000104 
0.000110 
0.000117 
0.000123 
0.000130 
0.000138 
0.000145 
0.000153 
0.000161 
0.000170 
0.000179 
0.000189 
0.000199 
0.000209 
0.000220 
0.000232 
0.000243 
0.000256 
0.000269 
0.000282 
0.000296 
0.000310 
0.000325 
0.000341 
0.000357 
0.000374 
0.000392 
0.000410 
0.000429 
0.000448 
0.000468 
0.000489 
0.000511 
0.000534 
0.000557 
0.000581 
0.000605 
0.000631 
0.000657 
0.000685 
0.000713 
0.000741 
0.000771 
0.000802 
0.000833 
0.000866 
0.000899 
0.000933 
0.000968 
0.001004 
0.001041 
0.001079 
0.001118 
0.001158 
0.001199 
0.001240 
0.001283 
0.001327 
0.001371 
0.001417 
0.001463 
0.001510 
0.001559 
0.001608 
0.001658 
0.001709 
0.001761 
0.001814 
0.001868 
0.001922 
0.001978 
0.002034 
0.002091 
0.002149 
0.002208 
0.002267 
0.002327 
0.002388 
0.002450 
0.002512 
0.002575 
0.002638 
0.002702 
0.002767 
0.002832 
0.002898 
0.002964 
0.003030 
0.003097 
0.003165 
0.003232 
0.003300 
0.003369 
0.003437 
0.003506 
0.003574 
0.003643 
0.003712 
0.003781 
0.003850 
0.003919 
0.003988 
0.004057 
0.004125 
0.004193 
0.004261 
0.004329 
0.004396 
0.004463 
0.004530 
0.004596 
0.004661 
0.004726 
0.004790 
0.004854 
0.004917 
0.004979 
0.005040 
0.005101 
0.005160 
0.005219 
0.005277 
0.005334 
0.005390 
0.005444 
0.005498 
0.005551 
0.005602 
0.005652 
0.005701 
0.005748 
0.005795 
0.005840 
0.005883 
0.005925 
0.005966 
0.006005 
0.006043 
0.006079 
0.006113 
0.006146 
0.006178 
0.006208 
0.006236 
0.006262 
0.006287 
0.006310 
0.006332 
0.006352 
0.006369 
0.006386 
0.006400 
0.006413 
0.006424 
0.006433 
0.006440 
0.006445 
0.006449 
0.006451 
0.000000 
0.000000 
0.000000 
0.000000 
0.000000 
0.000000 
0.000000 
0.000000 
0.000000 
0.000000 
0.000000 
0.000000 
0.000000 
0.000000 
0.000000 
0.000000 
0.000000 
0.000000 
0.000000 
0.000000 
0.000000 
0.000000 
0.000000 
0.000000 
0.000000 
0.000000 
0.000000 
0.000000 
0.000000 
0.000000 
0.000000 
0.000000 
0.000000 
0.000000 
0.000000 
0.000000 
0.000000 
0.000000 
0.000000 
0.000000 
0.000000 
0.000000 
0.000000 
0.000000 
0.000000 
0.000000 
0.000000 
0.000000 
0.000000 
0.000000 
0.000000 
0.000000 
0.000000 
0.000000 
0.000000 
0.000000 
0.000000 
0.000000 
0.000000 
0.000000 
0.000000 
0.000000 
0.000001 
0.000001 
0.000001 
0.000001 
0.000001 
0.000001 
0.000001 
0.000001 
0.000001 
0.000001 
0.000001 
0.000001 
0.000001 
0.000002 
0.000002 
0.000002 
0.000002 
0.000002 
0.000002 
0.000002 
0.000003 
0.000003 
0.000003 
0.000003 
0.000004 
0.000004 
0.000004 
0.000005 
0.000005 
0.000005 
0.000006 
0.000006 
0.000007 
0.000007 
0.000008 
0.000008 
0.000009 
0.000010 
0.000011 
0.000011 
0.000012 
0.000013 
0.000014 
0.000015 
0.000016 
0.000017 
0.000019 
0.000020 
0.000021 
0.000023 
0.000025 
0.000026 
0.000028 
0.000030 
0.000032 
0.000034 
0.000037 
0.000039 
0.000042 
0.000045 
0.000048 
0.000051 
0.000054 
0.000057 
0.000061 
0.000065 
0.000069 
0.000074 
0.000078 
0.000083 
0.000088 
0.000094 
0.000100 
0.000106 
0.000112 
0.000119 
0.000126 
0.000133 
0.000141 
0.000149 
0.000158 
0.000167 
0.000177 
0.000187 
0.000197 
0.000208 
0.000220 
0.000232 
0.000244 
0.000258 
0.000271 
0.000286 
0.000301 
0.000317 
0.000333 
0.000350 
0.000368 
0.000387 
0.000406 
0.000426 
0.000447 
0.000469 
0.000492 
0.000516 
0.000540 
0.000566 
0.000592 
0.000620 
0.000648 
0.000678 
0.000708 
0.000740 
0.000773 
0.000807 
0.000842 
0.000878 
0.000915 
0.000954 
0.000994 
0.001035 
0.001077 
0.001121 
0.001166 
0.001212 
0.001259 
0.001308 
0.001359 
0.001410 
0.001463 
0.001518 
0.001573 
0.001631 
0.001689 
0.001749 
0.001811 
0.001874 
0.001938 
0.002004 
0.002071 
0.002140 
0.002210 
0.002281 
0.002354 
0.002428 
0.002504 
0.002581 
0.002659 
0.002739 
0.002820 
0.002902 
0.002986 
0.003070 
0.003156 
0.003244 
0.003332 
0.003422 
0.003512 
0.003604 
0.003697 
0.003790 
0.003885 
0.003981 
0.004077 
0.004175 
0.004273 
0.004372 
0.004471 
0.004572 
0.004672 
0.004774 
0.004876 
0.004978 
0.005081 
0.005184 
0.005287 
0.005391 
0.005494 
0.005598 
0.005702 
0.005806 
0.005909 
0.006013 
0.006116 
0.006219 
0.006322 
0.006424 
0.006526 
0.006627 
0.006728 
0.006827 
0.006927 
0.007025 
0.007123 
0.007219 
0.007315 
0.007409 
0.007503 
0.007595 
0.007686 
0.007776 
0.007864 
0.007951 
0.008036 
0.008120 
0.008203 
0.008283 
0.008362 
0.008439 
0.008514 
0.008588 
0.008659 
0.008729 
0.008796 
0.008861 
0.008925 
0.008986 
0.009045 
0.009101 
0.009156 
0.009208 
0.009257 
0.009304 
0.009349 
0.009391 
0.009431 
0.009469 
0.009503 
0.009535 
0.009565 
0.009592 
0.009616 
0.009638 
0.009657 
0.009673 
0.009687 
0.009698 
0.009706 
0.009711 
0.009714 
0.000000 
0.000000 
0.000000 
0.000000 
0.000000 
0.000000 
0.000000 
0.000000 
0.000000 
0.000000 
0.000000 
0.000000 
0.000000 
0.000000 
0.000000 
0.000000 
0.000000 
0.000000 
0.000000 
0.000000 
0.000000 
0.000000 
0.000000 
0.000000 
0.000000 
0.000000 
0.000000 
0.000000 
0.000000 
0.000000 
0.000000 
0.000000 
0.000000 
0.000000 
0.000000 
0.000000 
0.000000 
0.000000 
0.000000 
0.000000 
0.000000 
0.000000 
0.000000 
0.000000 
0.000000 
0.000000 
0.000000 
0.000000 
0.000000 
0.000000 
0.000000 
0.000000 
0.000000 
0.000000 
0.000000 
0.000000 
0.000000 
0.000000 
0.000000 
0.000001 
0.000001 
0.000001 
0.000001 
0.000001 
0.000001 
0.000001 
0.000001 
0.000001 
0.000001 
0.000001 
0.000001 
0.000001 
0.000002 
0.000002 
0.000002 
0.000002 
0.000002 
0.000002 
0.000003 
0.000003 
0.000003 
0.000003 
0.000004 
0.000004 
0.000004 
0.000005 
0.000005 
0.000005 
0.000006 
0.000006 
0.000007 
0.000007 
0.000008 
0.000008 
0.000009 
0.000010 
0.000011 
0.000011 
0.000012 
0.000013 
0.000014 
0.000015 
0.000016 
0.000018 
0.000019 
0.000020 
0.000022 
0.000023 
0.000025 
0.000027 
0.000029 
0.000031 
0.000033 
0.000035 
0.000038 
0.000041 
0.000043 
0.000046 
0.000049 
0.000053 
0.000056 
0.000060 
0.000064 
0.000068 
0.000073 
0.000078 
0.000083 
0.000088 
0.000094 
0.000099 
0.000106 
0.000112 
0.000119 
0.000127 
0.000134 
0.000143 
0.000151 
0.000160 
0.000170 
0.000180 
0.000190 
0.000202 
0.000213 
0.000226 
0.000238 
0.000252 
0.000266 
0.000281 
0.000296 
0.000313 
0.000330 
0.000347 
0.000366 
0.000385 
0.000406 
0.000427 
0.000449 
0.000472 
0.000496 
0.000522 
0.000548 
0.000575 
0.000603 
0.000633 
0.000663 
0.000695 
0.000728 
0.000763 
0.000799 
0.000836 
0.000874 
0.000914 
0.000955 
0.000997 
0.001042 
0.001087 
0.001134 
0.001183 
0.001233 
0.001285 
0.001339 
0.001394 
0.001451 
0.001510 
0.001570 
0.001633 
0.001697 
0.001763 
0.001830 
0.001900 
0.001971 
0.002044 
0.002119 
0.002196 
0.002275 
0.002356 
0.002438 
0.002523 
0.002609 
0.002698 
0.002788 
0.002880 
0.002974 
0.003070 
0.003168 
0.003268 
0.003370 
0.003473 
0.003578 
0.003685 
0.003794 
0.003904 
0.004017 
0.004130 
0.004246 
0.004363 
0.004482 
0.004602 
0.004723 
0.004846 
0.004971 
0.005097 
0.005224 
0.005352 
0.005481 
0.005612 
0.005744 
0.005876 
0.006010 
0.006144 
0.006279 
0.006415 
0.006552 
0.006689 
0.006826 
0.006964 
0.007103 
0.007242 
0.007380 
0.007519 
0.007658 
0.007797 
0.007936 
0.008075 
0.008213 
0.008351 
0.008488 
0.008625 
0.008761 
0.008897 
0.009031 
0.009165 
0.009298 
0.009430 
0.009560 
0.009689 
0.009817 
0.009944 
0.010069 
0.010192 
0.010314 
0.010434 
0.010552 
0.010668 
0.010782 
0.010894 
0.011004 
0.011112 
0.011217 
0.011320 
0.011421 
0.011519 
0.011614 
0.011707 
0.011797 
0.011885 
0.011969 
0.012051 
0.012129 
0.012205 
0.012278 
0.012347 
0.012413 
0.012476 
0.012536 
0.012593 
0.012646 
0.012696 
0.012742 
0.012785 
0.012825 
0.012861 
0.012893 
0.012922 
0.012947 
0.012969 
0.012987 
0.013002 
0.013013 
0.013020 
0.013023 
0.000000 
0.000000 
0.000000 
0.000000 
0.000000 
0.000000 
0.000000 
0.000000 
0.000000 
0.000000 
0.000000 
0.000000 
0.000000 
0.000000 
0.000000 
0.000000 
0.000000 
0.000000 
0.000000 
0.000000 
0.000000 
0.000000 
0.000000 
0.000000 
0.000000 
0.000000 
0.000000 
0.000000 
0.000000 
0.000000 
0.000000 
0.000000 
0.000000 
0.000000 
0.000000 
0.000000 
0.000000 
0.000000 
0.000000 
0.000000 
0.000000 
0.000000 
0.000000 
0.000000 
0.000000 
0.000000 
0.000000 
0.000000 
0.000000 
0.000000 
0.000000 
0.000000 
0.000000 
0.000000 
0.000000 
0.000000 
0.000001 
0.000001 
0.000001 
0.000001 
0.000001 
0.000001 
0.000001 
0.000001 
0.000001 
0.000001 
0.000001 
0.000001 
0.000001 
0.000002 
0.000002 
0.000002 
0.000002 
0.000002 
0.000002 
0.000003 
0.000003 
0.000003 
0.000003 
0.000004 
0.000004 
0.000004 
0.000005 
0.000005 
0.000005 
0.000006 
0.000006 
0.000007 
0.000007 
0.000008 
0.000009 
0.000009 
0.000010 
0.000011 
0.000012 
0.000013 
0.000013 
0.000015 
0.000016 
0.000017 
0.000018 
0.000019 
0.000021 
0.000022 
0.000024 
0.000026 
0.000028 
0.000030 
0.000032 
0.000034 
0.000037 
0.000039 
0.000042 
0.000045 
0.000048 
0.000052 
0.000055 
0.000059 
0.000063 
0.000067 
0.000072 
0.000076 
0.000081 
0.000087 
0.000093 
0.000099 
0.000105 
0.000112 
0.000119 
0.000126 
0.000134 
0.000143 
0.000152 
0.000161 
0.000171 
0.000181 
0.000192 
0.000204 
0.000216 
0.000228 
0.000242 
0.000256 
0.000271 
0.000286 
0.000303 
0.000320 
0.000338 
0.000356 
0.000376 
0.000397 
0.000418 
0.000441 
0.000464 
0.000489 
0.000515 
0.000542 
0.000570 
0.000599 
0.000630 
0.000662 
0.000695 
0.000729 
0.000765 
0.000803 
0.000841 
0.000882 
0.000924 
0.000967 
0.001013 
0.001059 
0.001108 
0.001158 
0.001210 
0.001264 
0.001320 
0.001378 
0.001438 
0.001499 
0.001563 
0.001629 
0.001697 
0.001767 
0.001839 
0.001913 
0.001990 
0.002068 
0.002149 
0.002232 
0.002318 
0.002406 
0.002496 
0.002588 
0.002683 
0.002780 
0.002880 
0.002982 
0.003087 
0.003193 
0.003303 
0.003414 
0.003528 
0.003645 
0.003764 
0.003885 
0.004008 
0.004134 
0.004262 
0.004393 
0.004525 
0.004660 
0.004798 
0.004937 
0.005078 
0.005222 
0.005368 
0.005515 
0.005665 
0.005816 
0.005969 
0.006124 
0.006281 
0.006440 
0.006600 
0.006761 
0.006924 
0.007089 
0.007254 
0.007421 
0.007590 
0.007759 
0.007929 
0.008100 
0.008272 
0.008444 
0.008617 
0.008791 
0.008965 
0.009139 
0.009314 
0.009489 
0.009663 
0.009838 
0.010012 
0.010187 
0.010360 
0.010534 
0.010706 
0.010878 
0.011049 
0.011219 
0.011388 
0.011556 
0.011723 
0.011888 
0.012052 
0.012214 
0.012375 
0.012534 
0.012691 
0.012845 
0.012998 
0.013148 
0.013297 
0.013442 
0.013586 
0.013726 
0.013864 
0.013999 
0.014131 
0.014261 
0.014387 
0.014510 
0.014629 
0.014746 
0.014859 
0.014968 
0.015074 
0.015176 
0.015275 
0.015369 
0.015460 
0.015547 
0.015630 
0.015709 
0.015784 
0.015855 
0.015922 
0.015984 
0.016042 
0.016096 
0.016146 
0.016191 
0.016231 
0.016268 
0.016299 
0.016327 
0.016349 
0.016367 
0.016381 
0.016390 
0.016395 
0.000000 
0.000000 
0.000000 
0.000000 
0.000000 
0.000000 
0.000000 
0.000000 
0.000000 
0.000000 
0.000000 
0.000000 
0.000000 
0.000000 
0.000000 
0.000000 
0.000000 
0.000000 
0.000000 
0.000000 
0.000000 
0.000000 
0.000000 
0.000000 
0.000000 
0.000000 
0.000000 
0.000000 
0.000000 
0.000000 
0.000000 
0.000000 
0.000000 
0.000000 
0.000000 
0.000000 
0.000000 
0.000000 
0.000000 
0.000000 
0.000000 
0.000000 
0.000000 
0.000000 
0.000000 
0.000000 
0.000000 
0.000000 
0.000000 
0.000000 
0.000000 
0.000000 
0.000000 
0.000000 
0.000001 
0.000001 
0.000001 
0.000001 
0.000001 
0.000001 
0.000001 
0.000001 
0.000001 
0.000001 
0.000001 
0.000001 
0.000001 
0.000002 
0.000002 
0.000002 
0.000002 
0.000002 
0.000002 
0.000003 
0.000003 
0.000003 
0.000003 
0.000004 
0.000004 
0.000004 
0.000005 
0.000005 
0.000006 
0.000006 
0.000007 
0.000007 
0.000008 
0.000008 
0.000009 
0.000010 
0.000010 
0.000011 
0.000012 
0.000013 
0.000014 
0.000015 
0.000017 
0.000018 
0.000019 
0.000021 
0.000022 
0.000024 
0.000026 
0.000027 
0.000030 
0.000032 
0.000034 
0.000036 
0.000039 
0.000042 
0.000045 
0.000048 
0.000052 
0.000055 
0.000059 
0.000063 
0.000067 
0.000072 
0.000077 
0.000082 
0.000088 
0.000093 
0.000100 
0.000106 
0.000113 
0.000121 
0.000128 
0.000137 
0.000145 
0.000154 
0.000164 
0.000174 
0.000185 
0.000197 
0.000209 
0.000221 
0.000235 
0.000249 
0.000264 
0.000279 
0.000296 
0.000313 
0.000331 
0.000350 
0.000370 
0.000391 
0.000413 
0.000436 
0.000460 
0.000485 
0.000511 
0.000539 
0.000568 
0.000598 
0.000629 
0.000662 
0.000696 
0.000732 
0.000769 
0.000808 
0.000849 
0.000891 
0.000935 
0.000980 
0.001028 
0.001077 
0.001128 
0.001181 
0.001236 
0.001293 
0.001353 
0.001414 
0.001477 
0.001543 
0.001611 
0.001682 
0.001754 
0.001830 
0.001907 
0.001987 
0.002070 
0.002155 
0.002243 
0.002333 
0.002426 
0.002522 
0.002621 
0.002722 
0.002826 
0.002933 
0.003042 
0.003155 
0.003270 
0.003389 
0.003510 
0.003634 
0.003761 
0.003891 
0.004023 
0.004159 
0.004298 
0.004439 
0.004583 
0.004730 
0.004880 
0.005033 
0.005189 
0.005347 
0.005508 
0.005672 
0.005838 
0.006007 
0.006179 
0.006353 
0.006530 
0.006709 
0.006890 
0.007073 
0.007259 
0.007447 
0.007637 
0.007829 
0.008023 
0.008219 
0.008416 
0.008615 
0.008816 
0.009018 
0.009221 
0.009426 
0.009632 
0.009838 
0.010046 
0.010255 
0.010464 
0.010674 
0.010885 
0.011095 
0.011306 
0.011518 
0.011729 
0.011940 
0.012150 
0.012361 
0.012571 
0.012780 
0.012988 
0.013196 
0.013402 
0.013608 
0.013812 
0.014015 
0.014216 
0.014415 
0.014613 
0.014808 
0.015002 
0.015193 
0.015382 
0.015569 
0.015753 
0.015935 
0.016113 
0.016289 
0.016461 
0.016631 
0.016797 
0.016960 
0.017119 
0.017274 
0.017426 
0.017574 
0.017719 
0.017859 
0.017995 
0.018127 
0.018254 
0.018377 
0.018496 
0.018610 
0.018719 
0.018824 
0.018924 
0.019019 
0.019109 
0.019194 
0.019275 
0.019350 
0.019420 
0.019484 
0.019544 
0.019598 
0.019647 
0.019691 
0.019729 
0.019761 
0.019789 
0.019811 
0.019827 
0.019838 
0.019844 
0.000000 
0.000000 
0.000000 
0.000000 
0.000000 
0.000000 
0.000000 
0.000000 
0.000000 
0.000000 
0.000000 
0.000000 
0.000000 
0.000000 
0.000000 
0.000000 
0.000000 
0.000000 
0.000000 
0.000000 
0.000000 
0.000000 
0.000000 
0.000000 
0.000000 
0.000000 
0.000000 
0.000000 
0.000000 
0.000000 
0.000000 
0.000000 
0.000000 
0.000000 
0.000000 
0.000000 
0.000000 
0.000000 
0.000000 
0.000000 
0.000000 
0.000000 
0.000000 
0.000000 
0.000000 
0.000000 
0.000000 
0.000000 
0.000000 
0.000000 
0.000000 
0.000000 
0.000001 
0.000001 
0.000001 
0.000001 
0.000001 
0.000001 
0.000001 
0.000001 
0.000001 
0.000001 
0.000001 
0.000001 
0.000002 
0.000002 
0.000002 
0.000002 
0.000002 
0.000002 
0.000003 
0.000003 
0.000003 
0.000003 
0.000004 
0.000004 
0.000004 
0.000004 
0.000005 
0.000005 
0.000006 
0.000006 
0.000007 
0.000007 
0.000008 
0.000009 
0.000009 
0.000010 
0.000011 
0.000012 
0.000013 
0.000014 
0.000015 
0.000016 
0.000017 
0.000018 
0.000020 
0.000021 
0.000023 
0.000025 
0.000026 
0.000028 
0.000031 
0.000033 
0.000035 
0.000038 
0.000041 
0.000044 
0.000047 
0.000050 
0.000054 
0.000057 
0.000061 
0.000066 
0.000070 
0.000075 
0.000080 
0.000086 
0.000092 
0.000098 
0.000105 
0.000112 
0.000119 
0.000127 
0.000135 
0.000144 
0.000153 
0.000163 
0.000173 
0.000184 
0.000196 
0.000208 
0.000221 
0.000235 
0.000249 
0.000264 
0.000280 
0.000297 
0.000314 
0.000333 
0.000353 
0.000373 
0.000395 
0.000417 
0.000441 
0.000466 
0.000492 
0.000519 
0.000548 
0.000578 
0.000609 
0.000642 
0.000676 
0.000712 
0.000750 
0.000789 
0.000830 
0.000872 
0.000916 
0.000963 
0.001011 
0.001061 
0.001113 
0.001167 
0.001224 
0.001282 
0.001343 
0.001406 
0.001472 
0.001540 
0.001610 
0.001683 
0.001758 
0.001837 
0.001917 
0.002001 
0.002087 
0.002177 
0.002269 
0.002364 
0.002462 
0.002563 
0.002667 
0.002774 
0.002885 
0.002998 
0.003115 
0.003235 
0.003359 
0.003485 
0.003615 
0.003749 
0.003885 
0.004026 
0.004169 
0.004316 
0.004466 
0.004620 
0.004777 
0.004938 
0.005102 
0.005269 
0.005440 
0.005614 
0.005791 
0.005972 
0.006156 
0.006343 
0.006534 
0.006727 
0.006924 
0.007124 
0.007326 
0.007532 
0.007740 
0.007952 
0.008166 
0.008382 
0.008602 
0.008823 
0.009048 
0.009274 
0.009503 
0.009733 
0.009966 
0.010201 
0.010437 
0.010675 
0.010915 
0.011156 
0.011399 
0.011642 
0.011887 
0.012133 
0.012379 
0.012626 
0.012874 
0.013122 
0.013370 
0.013619 
0.013867 
0.014115 
0.014363 
0.014610 
0.014857 
0.015103 
0.015348 
0.015591 
0.015834 
0.016075 
0.016315 
0.016553 
0.016789 
0.017023 
0.017255 
0.017485 
0.017712 
0.017937 
0.018159 
0.018378 
0.018593 
0.018806 
0.019016 
0.019222 
0.019424 
0.019623 
0.019817 
0.020008 
0.020195 
0.020377 
0.020555 
0.020728 
0.020897 
0.021062 
0.021221 
0.021375 
0.021525 
0.021669 
0.021808 
0.021941 
0.022069 
0.022192 
0.022309 
0.022420 
0.022526 
0.022626 
0.022719 
0.022807 
0.022889 
0.022965 
0.023035 
0.023098 
0.023155 
0.023206 
0.023251 
0.023289 
0.023321 
0.023347 
0.023366 
0.023379 
0.023385 
0.000000 
0.000000 
0.000000 
0.000000 
0.000000 
0.000000 
0.000000 
0.000000 
0.000000 
0.000000 
0.000000 
0.000000 
0.000000 
0.000000 
0.000000 
0.000000 
0.000000 
0.000000 
0.000000 
0.000000 
0.000000 
0.000000 
0.000000 
0.000000 
0.000000 
0.000000 
0.000000 
0.000000 
0.000000 
0.000000 
0.000000 
0.000000 
0.000000 
0.000000 
0.000000 
0.000000 
0.000000 
0.000000 
0.000000 
0.000000 
0.000000 
0.000000 
0.000000 
0.000000 
0.000000 
0.000000 
0.000000 
0.000000 
0.000000 
0.000000 
0.000001 
0.000001 
0.000001 
0.000001 
0.000001 
0.000001 
0.000001 
0.000001 
0.000001 
0.000001 
0.000001 
0.000001 
0.000001 
0.000002 
0.000002 
0.000002 
0.000002 
0.000002 
0.000002 
0.000003 
0.000003 
0.000003 
0.000003 
0.000004 
0.000004 
0.000004 
0.000005 
0.000005 
0.000006 
0.000006 
0.000007 
0.000007 
0.000008 
0.000009 
0.000009 
0.000010 
0.000011 
0.000012 
0.000013 
0.000014 
0.000015 
0.000016 
0.000017 
0.000018 
0.000020 
0.000021 
0.000023 
0.000025 
0.000027 
0.000029 
0.000031 
0.000033 
0.000036 
0.000039 
0.000041 
0.000044 
0.000048 
0.000051 
0.000055 
0.000059 
0.000063 
0.000067 
0.000072 
0.000077 
0.000083 
0.000088 
0.000094 
0.000101 
0.000108 
0.000115 
0.000123 
0.000131 
0.000139 
0.000149 
0.000158 
0.000169 
0.000180 
0.000191 
0.000203 
0.000216 
0.000230 
0.000244 
0.000259 
0.000275 
0.000292 
0.000310 
0.000328 
0.000348 
0.000368 
0.000390 
0.000413 
0.000437 
0.000462 
0.000489 
0.000516 
0.000546 
0.000576 
0.000608 
0.000642 
0.000677 
0.000713 
0.000752 
0.000792 
0.000834 
0.000878 
0.000923 
0.000971 
0.001021 
0.001073 
0.001127 
0.001183 
0.001241 
0.001302 
0.001366 
0.001431 
0.001500 
0.001571 
0.001645 
0.001721 
0.001800 
0.001882 
0.001968 
0.002056 
0.002147 
0.002241 
0.002339 
0.002439 
0.002543 
0.002651 
0.002762 
0.002876 
0.002994 
0.003115 
0.003240 
0.003369 
0.003501 
0.003637 
0.003777 
0.003920 
0.004068 
0.004219 
0.004374 
0.004533 
0.004696 
0.004863 
0.005034 
0.005209 
0.005388 
0.005570 
0.005757 
0.005947 
0.006142 
0.006340 
0.006542 
0.006748 
0.006958 
0.007171 
0.007389 
0.007609 
0.007834 
0.008062 
0.008294 
0.008529 
0.008767 
0.009008 
0.009253 
0.009501 
0.009752 
0.010006 
0.010263 
0.010522 
0.010784 
0.011049 
0.011316 
0.011585 
0.011856 
0.012130 
0.012405 
0.012682 
0.012961 
0.013241 
0.013522 
0.013805 
0.014089 
0.014373 
0.014658 
0.014944 
0.015230 
0.015517 
0.015803 
0.016090 
0.016376 
0.016662 
0.016947 
0.017231 
0.017515 
0.017797 
0.018078 
0.018357 
0.018635 
0.018911 
0.019185 
0.019457 
0.019726 
0.019993 
0.020258 
0.020519 
0.020777 
0.021033 
0.021284 
0.021533 
0.021777 
0.022018 
0.022255 
0.022487 
0.022716 
0.022939 
0.023159 
0.023373 
0.023582 
0.023787 
0.023986 
0.024180 
0.024369 
0.024552 
0.024729 
0.024900 
0.025066 
0.025225 
0.025378 
0.025525 
0.025666 
0.025800 
0.025928 
0.026049 
0.026164 
0.026271 
0.026372 
0.026466 
0.026553 
0.026633 
0.026706 
0.026771 
0.026830 
0.026881 
0.026925 
0.026962 
0.026991 
0.027013 
0.027028 
0.027035 
0.000000 
0.000000 
0.000000 
0.000000 
0.000000 
0.000000 
0.000000 
0.000000 
0.000000 
0.000000 
0.000000 
0.000000 
0.000000 
0.000000 
0.000000 
0.000000 
0.000000 
0.000000 
0.000000 
0.000000 
0.000000 
0.000000 
0.000000 
0.000000 
0.000000 
0.000000 