# vtk DataFile Version 3.0
results.vtk
ASCII
DATASET RECTILINEAR_GRID
DIMENSIONS 301 301 1
X_COORDINATES 301 double
0.000000 0.003333 0.006667 0.010000 0.013333 0.016667 0.020000 0.023333 0.026667 0.030000 0.033333 0.036667 0.040000 0.043333 0.046667 0.050000 0.053333 0.056667 0.060000 0.063333 0.066667 0.070000 0.073333 0.076667 0.080000 0.083333 0.086667 0.090000 0.093333 0.096667 0.100000 0.103333 0.106667 0.110000 0.113333 0.116667 0.120000 0.123333 0.126667 0.130000 0.133333 0.136667 0.140000 0.143333 0.146667 0.150000 0.153333 0.156667 0.160000 0.163333 0.166667 0.170000 0.173333 0.176667 0.180000 0.183333 0.186667 0.190000 0.193333 0.196667 0.200000 0.203333 0.206667 0.210000 0.213333 0.216667 0.220000 0.223333 0.226667 0.230000 0.233333 0.236667 0.240000 0.243333 0.246667 0.250000 0.253333 0.256667 0.260000 0.263333 0.266667 0.270000 0.273333 0.276667 0.280000 0.283333 0.286667 0.290000 0.293333 0.296667 0.300000 0.303333 0.306667 0.310000 0.313333 0.316667 0.320000 0.323333 0.326667 0.330000 0.333333 0.336667 0.340000 0.343333 0.346667 0.350000 0.353333 0.356667 0.360000 0.363333 0.366667 0.370000 0.373333 0.376667 0.380000 0.383333 0.386667 0.390000 0.393333 0.396667 0.400000 0.403333 0.406667 0.410000 0.413333 0.416667 0.420000 0.423333 0.426667 0.430000 0.433333 0.436667 0.440000 0.443333 0.446667 0.450000 0.453333 0.456667 0.460000 0.463333 0.466667 0.470000 0.473333 0.476667 0.480000 0.483333 0.486667 0.490000 0.493333 0.496667 0.500000 0.503333 0.506667 0.510000 0.513333 0.516667 0.520000 0.523333 0.526667 0.530000 0.533333 0.536667 0.540000 0.543333 0.546667 0.550000 0.553333 0.556667 0.560000 0.563333 0.566667 0.570000 0.573333 0.576667 0.580000 0.583333 0.586667 0.590000 0.593333 0.596667 0.600000 0.603333 0.606667 0.610000 0.613333 0.616667 0.620000 0.623333 0.626667 0.630000 0.633333 0.636667 0.640000 0.643333 0.646667 0.650000 0.653333 0.656667 0.660000 0.663333 0.666667 0.670000 0.673333 0.676667 0.680000 0.683333 0.686667 0.690000 0.693333 0.696667 0.700000 0.703333 0.706667 0.710000 0.713333 0.716667 0.720000 0.723333 0.726667 0.730000 0.733333 0.736667 0.740000 0.743333 0.746667 0.750000 0.753333 0.756667 0.760000 0.763333 0.766667 0.770000 0.773333 0.776667 0.780000 0.783333 0.786667 0.790000 0.793333 0.796667 0.800000 0.803333 0.806667 0.810000 0.813333 0.816667 0.820000 0.823333 0.826667 0.830000 0.833333 0.836667 0.840000 0.843333 0.846667 0.850000 0.853333 0.856667 0.860000 0.863333 0.866667 0.870000 0.873333 0.876667 0.880000 0.883333 0.886667 0.890000 0.893333 0.896667 0.900000 0.903333 0.906667 0.910000 0.913333 0.916667 0.920000 0.923333 0.926667 0.930000 0.933333 0.936667 0.940000 0.943333 0.946667 0.950000 0.953333 0.956667 0.960000 0.963333 0.966667 0.970000 0.973333 0.976667 0.980000 0.983333 0.986667 0.990000 0.993333 0.996667 1.000000 
Y_COORDINATES 301 double
0.000000 0.003333 0.006667 0.010000 0.013333 0.016667 0.020000 0.023333 0.026667 0.030000 0.033333 0.036667 0.040000 0.043333 0.046667 0.050000 0.053333 0.056667 0.060000 0.063333 0.066667 0.070000 0.073333 0.076667 0.080000 0.083333 0.086667 0.090000 0.093333 0.096667 0.100000 0.103333 0.106667 0.110000 0.113333 0.116667 0.120000 0.123333 0.126667 0.130000 0.133333 0.136667 0.140000 0.143333 0.146667 0.150000 0.153333 0.156667 0.160000 0.163333 0.166667 0.170000 0.173333 0.176667 0.180000 0.183333 0.186667 0.190000 0.193333 0.196667 0.200000 0.203333 0.206667 0.210000 0.213333 0.216667 0.220000 0.223333 0.226667 0.230000 0.233333 0.236667 0.240000 0.243333 0.246667 0.250000 0.253333 0.256667 0.260000 0.263333 0.266667 0.270000 0.273333 0.276667 0.280000 0.283333 0.286667 0.290000 0.293333 0.296667 0.300000 0.303333 0.306667 0.310000 0.313333 0.316667 0.320000 0.323333 0.326667 0.330000 0.333333 0.336667 0.340000 0.343333 0.346667 0.350000 0.353333 0.356667 0.360000 0.363333 0.366667 0.370000 0.373333 0.376667 0.380000 0.383333 0.386667 0.390000 0.393333 0.396667 0.400000 0.403333 0.406667 0.410000 0.413333 0.416667 0.420000 0.423333 0.426667 0.430000 0.433333 0.436667 0.440000 0.443333 0.446667 0.450000 0.453333 0.456667 0.460000 0.463333 0.466667 0.470000 0.473333 0.476667 0.480000 0.483333 0.486667 0.490000 0.493333 0.496667 0.500000 0.503333 0.506667 0.510000 0.513333 0.516667 0.520000 0.523333 0.526667 0.530000 0.533333 0.536667 0.540000 0.543333 0.546667 0.550000 0.553333 0.556667 0.560000 0.563333 0.566667 0.570000 0.573333 0.576667 0.580000 0.583333 0.586667 0.590000 0.593333 0.596667 0.600000 0.603333 0.606667 0.610000 0.613333 0.616667 0.620000 0.623333 0.626667 0.630000 0.633333 0.636667 0.640000 0.643333 0.646667 0.650000 0.653333 0.656667 0.660000 0.663333 0.666667 0.670000 0.673333 0.676667 0.680000 0.683333 0.686667 0.690000 0.693333 0.696667 0.700000 0.703333 0.706667 0.710000 0.713333 0.716667 0.720000 0.723333 0.726667 0.730000 0.733333 0.736667 0.740000 0.743333 0.746667 0.750000 0.753333 0.756667 0.760000 0.763333 0.766667 0.770000 0.773333 0.776667 0.780000 0.783333 0.786667 0.790000 0.793333 0.796667 0.800000 0.803333 0.806667 0.810000 0.813333 0.816667 0.820000 0.823333 0.826667 0.830000 0.833333 0.836667 0.840000 0.843333 0.846667 0.850000 0.853333 0.856667 0.860000 0.863333 0.866667 0.870000 0.873333 0.876667 0.880000 0.883333 0.886667 0.890000 0.893333 0.896667 0.900000 0.903333 0.906667 0.910000 0.913333 0.916667 0.920000 0.923333 0.926667 0.930000 0.933333 0.936667 0.940000 0.943333 0.946667 0.950000 0.953333 0.956667 0.960000 0.963333 0.966667 0.970000 0.973333 0.976667 0.980000 0.983333 0.986667 0.990000 0.993333 0.996667 1.000000 
Z_COORDINATES 1 double
0
POINT_DATA 90601 
FIELD FieldData 1 
Concentração 1 90601 double 
0.000000 
0.000000 
0.000000 
0.000000 
0.000000 
0.000000 
0.000000 
0.000000 
0.000000 
0.000000 
0.000000 
0.000000 
0.000000 
0.000000 
0.000000 
0.000000 
0.000000 
0.000000 
0.000000 
0.000000 
0.000000 
0.000000 
0.000000 
0.000000 
0.000000 
0.000000 
0.000000 
0.000000 
0.000000 
0.000000 
0.000000 
0.000000 
0.000000 
0.000000 
0.000000 
0.000000 
0.000000 
0.000000 
0.000000 
0.000000 
0.000000 
0.000000 
0.000000 
0.000000 
0.000000 
0.000000 
0.000000 
0.000000 
0.000000 
0.000000 
0.000000 
0.000000 
0.000000 
0.000000 
0.000000 
0.000000 
0.000000 
0.000000 
0.000000 
0.000000 
0.000000 
0.000000 
0.000000 
0.000000 
0.000000 
0.000000 
0.000000 
0.000000 
0.000000 
0.000000 
0.000000 
0.000000 
0.000000 
0.000000 
0.000000 
0.000000 
0.000000 
0.000000 
0.000000 
0.000000 
0.000000 
0.000000 
0.000000 
0.000000 
0.000000 
0.000000 
0.000000 
0.000000 
0.000000 
0.000000 
0.000000 
0.000000 
0.000000 
0.000000 
0.000000 
0.000000 
0.000000 
0.000001 
0.000001 
0.000001 
0.000001 
0.000001 
0.000001 
0.000001 
0.000001 
0.000001 
0.000001 
0.000001 
0.000001 
0.000001 
0.000001 
0.000002 
0.000002 
0.000002 
0.000002 
0.000002 
0.000002 
0.000002 
0.000002 
0.000003 
0.000003 
0.000003 
0.000003 
0.000003 
0.000004 
0.000004 
0.000004 
0.000005 
0.000005 
0.000005 
0.000005 
0.000006 
0.000006 
0.000007 
0.000007 
0.000007 
0.000008 
0.000008 
0.000009 
0.000010 
0.000010 
0.000011 
0.000011 
0.000012 
0.000013 
0.000014 
0.000014 
0.000015 
0.000016 
0.000017 
0.000018 
0.000019 
0.000020 
0.000021 
0.000023 
0.000024 
0.000025 
0.000027 
0.000028 
0.000029 
0.000031 
0.000033 
0.000034 
0.000036 
0.000038 
0.000040 
0.000042 
0.000044 
0.000046 
0.000049 
0.000051 
0.000054 
0.000056 
0.000059 
0.000062 
0.000065 
0.000068 
0.000071 
0.000074 
0.000077 
0.000081 
0.000085 
0.000088 
0.000092 
0.000096 
0.000100 
0.000105 
0.000109 
0.000114 
0.000118 
0.000123 
0.000128 
0.000133 
0.000139 
0.000144 
0.000150 
0.000155 
0.000161 
0.000167 
0.000174 
0.000180 
0.000186 
0.000193 
0.000200 
0.000207 
0.000214 
0.000222 
0.000229 
0.000237 
0.000245 
0.000253 
0.000261 
0.000269 
0.000278 
0.000286 
0.000295 
0.000304 
0.000313 
0.000323 
0.000332 
0.000342 
0.000351 
0.000361 
0.000371 
0.000381 
0.000391 
0.000402 
0.000412 
0.000423 
0.000434 
0.000444 
0.000455 
0.000466 
0.000477 
0.000489 
0.000500 
0.000511 
0.000523 
0.000534 
0.000545 
0.000557 
0.000569 
0.000580 
0.000592 
0.000603 
0.000615 
0.000627 
0.000638 
0.000650 
0.000662 
0.000673 
0.000685 
0.000696 
0.000708 
0.000719 
0.000730 
0.000741 
0.000753 
0.000764 
0.000774 
0.000785 
0.000796 
0.000806 
0.000817 
0.000827 
0.000837 
0.000847 
0.000856 
0.000866 
0.000875 
0.000884 
0.000893 
0.000902 
0.000911 
0.000919 
0.000927 
0.000934 
0.000942 
0.000949 
0.000956 
0.000963 
0.000969 
0.000975 
0.000981 
0.000987 
0.000992 
0.000997 
0.001002 
0.001006 
0.001010 
0.001014 
0.001017 
0.001020 
0.001023 
0.001025 
0.001027 
0.001029 
0.001030 
0.001031 
0.001032 
0.001032 
0.000000 
0.000000 
0.000000 
0.000000 
0.000000 
0.000000 
0.000000 
0.000000 
0.000000 
0.000000 
0.000000 
0.000000 
0.000000 
0.000000 
0.000000 
0.000000 
0.000000 
0.000000 
0.000000 
0.000000 
0.000000 
0.000000 
0.000000 
0.000000 
0.000000 
0.000000 
0.000000 
0.000000 
0.000000 
0.000000 
0.000000 
0.000000 
0.000000 
0.000000 
0.000000 
0.000000 
0.000000 
0.000000 
0.000000 
0.000000 
0.000000 
0.000000 
0.000000 
0.000000 
0.000000 
0.000000 
0.000000 
0.000000 
0.000000 
0.000000 
0.000000 
0.000000 
0.000000 
0.000000 
0.000000 
0.000000 
0.000000 
0.000000 
0.000000 
0.000000 
0.000000 
0.000000 
0.000000 
0.000000 
0.000000 
0.000000 
0.000000 
0.000000 
0.000000 
0.000000 
0.000000 
0.000000 
0.000000 
0.000000 
0.000000 
0.000000 
0.000000 
0.000000 
0.000000 
0.000000 
0.000000 
0.000000 
0.000000 
0.000000 
0.000000 
0.000000 
0.000000 
0.000000 
0.000001 
0.000001 
0.000001 
0.000001 
0.000001 
0.000001 
0.000001 
0.000001 
0.000001 
0.000001 
0.000001 
0.000001 
0.000001 
0.000001 
0.000002 
0.000002 
0.000002 
0.000002 
0.000002 
0.000002 
0.000002 
0.000003 
0.000003 
0.000003 
0.000003 
0.000004 
0.000004 
0.000004 
0.000004 
0.000005 
0.000005 
0.000005 
0.000006 
0.000006 
0.000007 
0.000007 
0.000007 
0.000008 
0.000008 
0.000009 
0.000010 
0.000010 
0.000011 
0.000012 
0.000012 
0.000013 
0.000014 
0.000015 
0.000016 
0.000017 
0.000018 
0.000019 
0.000020 
0.000022 
0.000023 
0.000024 
0.000026 
0.000027 
0.000029 
0.000031 
0.000033 
0.000034 
0.000036 
0.000039 
0.000041 
0.000043 
0.000045 
0.000048 
0.000051 
0.000053 
0.000056 
0.000059 
0.000063 
0.000066 
0.000069 
0.000073 
0.000077 
0.000081 
0.000085 
0.000089 
0.000093 
0.000098 
0.000103 
0.000108 
0.000113 
0.000119 
0.000124 
0.000130 
0.000136 
0.000143 
0.000149 
0.000156 
0.000163 
0.000170 
0.000178 
0.000185 
0.000193 
0.000202 
0.000210 
0.000219 
0.000228 
0.000238 
0.000248 
0.000258 
0.000268 
0.000279 
0.000289 
0.000301 
0.000312 
0.000324 
0.000336 
0.000349 
0.000362 
0.000375 
0.000388 
0.000402 
0.000416 
0.000431 
0.000446 
0.000461 
0.000476 
0.000492 
0.000508 
0.000525 
0.000541 
0.000558 
0.000576 
0.000593 
0.000611 
0.000630 
0.000648 
0.000667 
0.000687 
0.000706 
0.000726 
0.000746 
0.000766 
0.000787 
0.000808 
0.000829 
0.000850 
0.000871 
0.000893 
0.000915 
0.000937 
0.000959 
0.000982 
0.001004 
0.001027 
0.001050 
0.001073 
0.001096 
0.001119 
0.001143 
0.001166 
0.001189 
0.001213 
0.001236 
0.001259 
0.001283 
0.001306 
0.001329 
0.001353 
0.001376 
0.001399 
0.001422 
0.001444 
0.001467 
0.001490 
0.001512 
0.001534 
0.001556 
0.001577 
0.001599 
0.001620 
0.001641 
0.001661 
0.001681 
0.001701 
0.001721 
0.001740 
0.001758 
0.001777 
0.001794 
0.001812 
0.001829 
0.001845 
0.001861 
0.001877 
0.001892 
0.001907 
0.001921 
0.001934 
0.001947 
0.001959 
0.001971 
0.001982 
0.001993 
0.002003 
0.002012 
0.002021 
0.002029 
0.002036 
0.002043 
0.002049 
0.002054 
0.002059 
0.002063 
0.002066 
0.002069 
0.002071 
0.002073 
0.002073 
0.000000 
0.000000 
0.000000 
0.000000 
0.000000 
0.000000 
0.000000 
0.000000 
0.000000 
0.000000 
0.000000 
0.000000 
0.000000 
0.000000 
0.000000 
0.000000 
0.000000 
0.000000 
0.000000 
0.000000 
0.000000 
0.000000 
0.000000 
0.000000 
0.000000 
0.000000 
0.000000 
0.000000 
0.000000 
0.000000 
0.000000 
0.000000 
0.000000 
0.000000 
0.000000 
0.000000 
0.000000 
0.000000 
0.000000 
0.000000 
0.000000 
0.000000 
0.000000 
0.000000 
0.000000 
0.000000 
0.000000 
0.000000 
0.000000 
0.000000 
0.000000 
0.000000 
0.000000 
0.000000 
0.000000 
0.000000 
0.000000 
0.000000 
0.000000 
0.000000 
0.000000 
0.000000 
0.000000 
0.000000 
0.000000 
0.000000 
0.000000 
0.000000 
0.000000 
0.000000 
0.000000 
0.000000 
0.000000 
0.000000 
0.000000 
0.000000 
0.000000 
0.000000 
0.000000 
0.000000 
0.000000 
0.000000 
0.000000 
0.000001 
0.000001 
0.000001 
0.000001 
0.000001 
0.000001 
0.000001 
0.000001 
0.000001 
0.000001 
0.000001 
0.000001 
0.000001 
0.000002 
0.000002 
0.000002 
0.000002 
0.000002 
0.000002 
0.000002 
0.000003 
0.000003 
0.000003 
0.000003 
0.000003 
0.000004 
0.000004 
0.000004 
0.000005 
0.000005 
0.000005 
0.000006 
0.000006 
0.000007 
0.000007 
0.000008 
0.000008 
0.000009 
0.000009 
0.000010 
0.000011 
0.000011 
0.000012 
0.000013 
0.000014 
0.000015 
0.000016 
0.000017 
0.000018 
0.000019 
0.000020 
0.000021 
0.000023 
0.000024 
0.000026 
0.000027 
0.000029 
0.000031 
0.000033 
0.000035 
0.000037 
0.000039 
0.000042 
0.000044 
0.000047 
0.000049 
0.000052 
0.000055 
0.000058 
0.000062 
0.000065 
0.000069 
0.000073 
0.000077 
0.000081 
0.000085 
0.000090 
0.000095 
0.000100 
0.000105 
0.000110 
0.000116 
0.000122 
0.000128 
0.000135 
0.000142 
0.000149 
0.000156 
0.000163 
0.000171 
0.000180 
0.000188 
0.000197 
0.000206 
0.000216 
0.000226 
0.000236 
0.000247 
0.000258 
0.000269 
0.000281 
0.000293 
0.000305 
0.000318 
0.000332 
0.000346 
0.000360 
0.000375 
0.000390 
0.000406 
0.000422 
0.000438 
0.000455 
0.000473 
0.000491 
0.000509 
0.000528 
0.000547 
0.000567 
0.000588 
0.000609 
0.000630 
0.000652 
0.000674 
0.000697 
0.000720 
0.000744 
0.000769 
0.000794 
0.000819 
0.000845 
0.000871 
0.000898 
0.000925 
0.000953 
0.000981 
0.001009 
0.001038 
0.001068 
0.001098 
0.001128 
0.001159 
0.001190 
0.001221 
0.001253 
0.001285 
0.001318 
0.001351 
0.001384 
0.001417 
0.001451 
0.001485 
0.001519 
0.001553 
0.001588 
0.001622 
0.001657 
0.001692 
0.001727 
0.001762 
0.001798 
0.001833 
0.001868 
0.001904 
0.001939 
0.001974 
0.002009 
0.002044 
0.002079 
0.002114 
0.002149 
0.002183 
0.002217 
0.002251 
0.002285 
0.002318 
0.002351 
0.002384 
0.002416 
0.002448 
0.002479 
0.002510 
0.002540 
0.002570 
0.002600 
0.002628 
0.002657 
0.002684 
0.002711 
0.002738 
0.002763 
0.002788 
0.002812 
0.002836 
0.002859 
0.002880 
0.002902 
0.002922 
0.002941 
0.002960 
0.002977 
0.002994 
0.003010 
0.003025 
0.003039 
0.003052 
0.003064 
0.003076 
0.003086 
0.003095 
0.003103 
0.003110 
0.003116 
0.003122 
0.003126 
0.003129 
0.003131 
0.003132 
0.000000 
0.000000 
0.000000 
0.000000 
0.000000 
0.000000 
0.000000 
0.000000 
0.000000 
0.000000 
0.000000 
0.000000 
0.000000 
0.000000 
0.000000 
0.000000 
0.000000 
0.000000 
0.000000 
0.000000 
0.000000 
0.000000 
0.000000 
0.000000 
0.000000 
0.000000 
0.000000 
0.000000 
0.000000 
0.000000 
0.000000 
0.000000 
0.000000 
0.000000 
0.000000 
0.000000 
0.000000 
0.000000 
0.000000 
0.000000 
0.000000 
0.000000 
0.000000 
0.000000 
0.000000 
0.000000 
0.000000 
0.000000 
0.000000 
0.000000 
0.000000 
0.000000 
0.000000 
0.000000 
0.000000 
0.000000 
0.000000 
0.000000 
0.000000 
0.000000 
0.000000 
0.000000 
0.000000 
0.000000 
0.000000 
0.000000 
0.000000 
0.000000 
0.000000 
0.000000 
0.000000 
0.000000 
0.000000 
0.000000 
0.000000 
0.000000 
0.000000 
0.000000 
0.000000 
0.000001 
0.000001 
0.000001 
0.000001 
0.000001 
0.000001 
0.000001 
0.000001 
0.000001 
0.000001 
0.000001 
0.000001 
0.000001 
0.000001 
0.000002 
0.000002 
0.000002 
0.000002 
0.000002 
0.000002 
0.000003 
0.000003 
0.000003 
0.000003 
0.000003 
0.000004 
0.000004 
0.000004 
0.000005 
0.000005 
0.000005 
0.000006 
0.000006 
0.000007 
0.000007 
0.000008 
0.000008 
0.000009 
0.000009 
0.000010 
0.000011 
0.000012 
0.000012 
0.000013 
0.000014 
0.000015 
0.000016 
0.000017 
0.000019 
0.000020 
0.000021 
0.000023 
0.000024 
0.000026 
0.000027 
0.000029 
0.000031 
0.000033 
0.000035 
0.000037 
0.000039 
0.000042 
0.000044 
0.000047 
0.000050 
0.000053 
0.000056 
0.000059 
0.000063 
0.000067 
0.000071 
0.000075 
0.000079 
0.000083 
0.000088 
0.000093 
0.000098 
0.000104 
0.000109 
0.000115 
0.000121 
0.000128 
0.000135 
0.000142 
0.000149 
0.000157 
0.000165 
0.000173 
0.000182 
0.000191 
0.000201 
0.000211 
0.000221 
0.000232 
0.000243 
0.000254 
0.000266 
0.000279 
0.000291 
0.000305 
0.000319 
0.000333 
0.000348 
0.000363 
0.000379 
0.000396 
0.000413 
0.000430 
0.000448 
0.000467 
0.000486 
0.000506 
0.000526 
0.000547 
0.000569 
0.000591 
0.000614 
0.000638 
0.000662 
0.000687 
0.000713 
0.000739 
0.000766 
0.000793 
0.000821 
0.000850 
0.000880 
0.000910 
0.000941 
0.000972 
0.001004 
0.001037 
0.001071 
0.001105 
0.001140 
0.001175 
0.001211 
0.001248 
0.001285 
0.001323 
0.001362 
0.001401 
0.001440 
0.001481 
0.001522 
0.001563 
0.001605 
0.001647 
0.001690 
0.001733 
0.001777 
0.001821 
0.001866 
0.001911 
0.001956 
0.002002 
0.002048 
0.002094 
0.002140 
0.002187 
0.002234 
0.002281 
0.002328 
0.002376 
0.002423 
0.002471 
0.002518 
0.002566 
0.002613 
0.002660 
0.002708 
0.002755 
0.002802 
0.002849 
0.002895 
0.002941 
0.002987 
0.003033 
0.003078 
0.003123 
0.003167 
0.003211 
0.003255 
0.003297 
0.003339 
0.003381 
0.003422 
0.003462 
0.003502 
0.003540 
0.003578 
0.003615 
0.003652 
0.003687 
0.003721 
0.003755 
0.003788 
0.003819 
0.003850 
0.003879 
0.003907 
0.003935 
0.003961 
0.003986 
0.004009 
0.004032 
0.004053 
0.004073 
0.004092 
0.004110 
0.004126 
0.004141 
0.004155 
0.004167 
0.004178 
0.004188 
0.004196 
0.004203 
0.004208 
0.004213 
0.004215 
0.004217 
0.000000 
0.000000 
0.000000 
0.000000 
0.000000 
0.000000 
0.000000 
0.000000 
0.000000 
0.000000 
0.000000 
0.000000 
0.000000 
0.000000 
0.000000 
0.000000 
0.000000 
0.000000 
0.000000 
0.000000 
0.000000 
0.000000 
0.000000 
0.000000 
0.000000 
0.000000 
0.000000 
0.000000 
0.000000 
0.000000 
0.000000 
0.000000 
0.000000 
0.000000 
0.000000 
0.000000 
0.000000 
0.000000 
0.000000 
0.000000 
0.000000 
0.000000 
0.000000 
0.000000 
0.000000 
0.000000 
0.000000 
0.000000 
0.000000 
0.000000 
0.000000 
0.000000 
0.000000 
0.000000 
0.000000 
0.000000 
0.000000 
0.000000 
0.000000 
0.000000 
0.000000 
0.000000 
0.000000 
0.000000 
0.000000 
0.000000 
0.000000 
0.000000 
0.000000 
0.000000 
0.000000 
0.000000 
0.000000 
0.000000 
0.000000 
0.000000 
0.000001 
0.000001 
0.000001 
0.000001 
0.000001 
0.000001 
0.000001 
0.000001 
0.000001 
0.000001 
0.000001 
0.000001 
0.000001 
0.000001 
0.000002 
0.000002 
0.000002 
0.000002 
0.000002 
0.000002 
0.000003 
0.000003 
0.000003 
0.000003 
0.000004 
0.000004 
0.000004 
0.000004 
0.000005 
0.000005 
0.000006 
0.000006 
0.000006 
0.000007 
0.000007 
0.000008 
0.000008 
0.000009 
0.000010 
0.000010 
0.000011 
0.000012 
0.000013 
0.000014 
0.000015 
0.000016 
0.000017 
0.000018 
0.000019 
0.000021 
0.000022 
0.000024 
0.000025 
0.000027 
0.000029 
0.000031 
0.000033 
0.000035 
0.000037 
0.000039 
0.000042 
0.000044 
0.000047 
0.000050 
0.000053 
0.000056 
0.000060 
0.000064 
0.000067 
0.000071 
0.000076 
0.000080 
0.000085 
0.000090 
0.000095 
0.000100 
0.000106 
0.000112 
0.000118 
0.000125 
0.000132 
0.000139 
0.000146 
0.000154 
0.000163 
0.000171 
0.000180 
0.000190 
0.000199 
0.000210 
0.000220 
0.000231 
0.000243 
0.000255 
0.000268 
0.000281 
0.000294 
0.000308 
0.000323 
0.000338 
0.000354 
0.000370 
0.000387 
0.000405 
0.000423 
0.000442 
0.000461 
0.000482 
0.000503 
0.000524 
0.000546 
0.000569 
0.000593 
0.000617 
0.000643 
0.000669 
0.000695 
0.000723 
0.000751 
0.000780 
0.000810 
0.000841 
0.000872 
0.000905 
0.000938 
0.000972 
0.001007 
0.001043 
0.001079 
0.001117 
0.001155 
0.001194 
0.001234 
0.001275 
0.001316 
0.001359 
0.001402 
0.001446 
0.001491 
0.001537 
0.001583 
0.001631 
0.001679 
0.001728 
0.001777 
0.001827 
0.001878 
0.001930 
0.001982 
0.002035 
0.002089 
0.002143 
0.002198 
0.002253 
0.002309 
0.002366 
0.002423 
0.002480 
0.002538 
0.002596 
0.002654 
0.002713 
0.002772 
0.002832 
0.002891 
0.002951 
0.003011 
0.003071 
0.003131 
0.003191 
0.003251 
0.003311 
0.003371 
0.003431 
0.003491 
0.003550 
0.003609 
0.003668 
0.003726 
0.003784 
0.003842 
0.003899 
0.003956 
0.004012 
0.004067 
0.004122 
0.004176 
0.004229 
0.004282 
0.004334 
0.004384 
0.004434 
0.004483 
0.004531 
0.004578 
0.004624 
0.004668 
0.004712 
0.004754 
0.004795 
0.004835 
0.004873 
0.004911 
0.004946 
0.004981 
0.005014 
0.005045 
0.005075 
0.005104 
0.005131 
0.005156 
0.005180 
0.005202 
0.005223 
0.005242 
0.005259 
0.005274 
0.005288 
0.005300 
0.005311 
0.005320 
0.005327 
0.005332 
0.005335 
0.005337 
0.000000 
0.000000 
0.000000 
0.000000 
0.000000 
0.000000 
0.000000 
0.000000 
0.000000 
0.000000 
0.000000 
0.000000 
0.000000 
0.000000 
0.000000 
0.000000 
0.000000 
0.000000 
0.000000 
0.000000 
0.000000 
0.000000 
0.000000 
0.000000 
0.000000 
0.000000 
0.000000 
0.000000 
0.000000 
0.000000 
0.000000 
0.000000 
0.000000 
0.000000 
0.000000 
0.000000 
0.000000 
0.000000 
0.000000 
0.000000 
0.000000 
0.000000 
0.000000 
0.000000 
0.000000 
0.000000 
0.000000 
0.000000 
0.000000 
0.000000 
0.000000 
0.000000 
0.000000 
0.000000 
0.000000 
0.000000 
0.000000 
0.000000 
0.000000 
0.000000 
0.000000 
0.000000 
0.000000 
0.000000 
0.000000 
0.000000 
0.000000 
0.000000 
0.000000 
0.000000 
0.000000 
0.000000 
0.000000 
0.000000 
0.000001 
0.000001 
0.000001 
0.000001 
0.000001 
0.000001 
0.000001 
0.000001 
0.000001 
0.000001 
0.000001 
0.000001 
0.000001 
0.000002 
0.000002 
0.000002 
0.000002 
0.000002 
0.000002 
0.000003 
0.000003 
0.000003 
0.000003 
0.000003 
0.000004 
0.000004 
0.000004 
0.000005 
0.000005 
0.000005 
0.000006 
0.000006 
0.000007 
0.000007 
0.000008 
0.000008 
0.000009 
0.000010 
0.000010 
0.000011 
0.000012 
0.000013 
0.000014 
0.000015 
0.000016 
0.000017 
0.000018 
0.000019 
0.000021 
0.000022 
0.000024 
0.000025 
0.000027 
0.000029 
0.000031 
0.000033 
0.000035 
0.000037 
0.000040 
0.000042 
0.000045 
0.000048 
0.000051 
0.000054 
0.000058 
0.000061 
0.000065 
0.000069 
0.000073 
0.000078 
0.000083 
0.000087 
0.000093 
0.000098 
0.000104 
0.000110 
0.000116 
0.000123 
0.000130 
0.000137 
0.000145 
0.000153 
0.000161 
0.000170 
0.000179 
0.000189 
0.000199 
0.000210 
0.000221 
0.000232 
0.000244 
0.000257 
0.000270 
0.000283 
0.000298 
0.000312 
0.000328 
0.000344 
0.000360 
0.000378 
0.000395 
0.000414 
0.000433 
0.000453 
0.000474 
0.000496 
0.000518 
0.000541 
0.000565 
0.000590 
0.000615 
0.000641 
0.000669 
0.000697 
0.000726 
0.000756 
0.000786 
0.000818 
0.000851 
0.000884 
0.000919 
0.000954 
0.000991 
0.001029 
0.001067 
0.001107 
0.001147 
0.001189 
0.001231 
0.001275 
0.001320 
0.001365 
0.001412 
0.001460 
0.001509 
0.001558 
0.001609 
0.001661 
0.001714 
0.001767 
0.001822 
0.001878 
0.001935 
0.001992 
0.002051 
0.002111 
0.002171 
0.002232 
0.002294 
0.002357 
0.002421 
0.002486 
0.002551 
0.002617 
0.002684 
0.002752 
0.002820 
0.002888 
0.002958 
0.003028 
0.003098 
0.003169 
0.003240 
0.003312 
0.003384 
0.003456 
0.003529 
0.003601 
0.003674 
0.003747 
0.003820 
0.003893 
0.003967 
0.004040 
0.004113 
0.004185 
0.004258 
0.004330 
0.004402 
0.004474 
0.004545 
0.004615 
0.004685 
0.004755 
0.004824 
0.004892 
0.004959 
0.005026 
0.005091 
0.005156 
0.005220 
0.005283 
0.005345 
0.005405 
0.005465 
0.005523 
0.005580 
0.005635 
0.005690 
0.005742 
0.005794 
0.005844 
0.005892 
0.005939 
0.005984 
0.006027 
0.006069 
0.006109 
0.006148 
0.006184 
0.006219 
0.006251 
0.006282 
0.006311 
0.006338 
0.006363 
0.006386 
0.006407 
0.006426 
0.006443 
0.006457 
0.006470 
0.006481 
0.006489 
0.006495 
0.006500 
0.006502 
0.000000 
0.000000 
0.000000 
0.000000 
0.000000 
0.000000 
0.000000 
0.000000 
0.000000 
0.000000 
0.000000 
0.000000 
0.000000 
0.000000 
0.000000 
0.000000 
0.000000 
0.000000 
0.000000 
0.000000 
0.000000 
0.000000 
0.000000 
0.000000 
0.000000 
0.000000 
0.000000 
0.000000 
0.000000 
0.000000 
0.000000 
0.000000 
0.000000 
0.000000 
0.000000 
0.000000 
0.000000 
0.000000 
0.000000 
0.000000 
0.000000 
0.000000 
0.000000 
0.000000 
0.000000 
0.000000 
0.000000 
0.000000 
0.000000 
0.000000 
0.000000 
0.000000 
0.000000 
0.000000 
0.000000 
0.000000 
0.000000 
0.000000 
0.000000 
0.000000 
0.000000 
0.000000 
0.000000 
0.000000 
0.000000 
0.000000 
0.000000 
0.000000 
0.000000 
0.000000 
0.000000 
0.000000 
0.000001 
0.000001 
0.000001 
0.000001 
0.000001 
0.000001 
0.000001 
0.000001 
0.000001 
0.000001 
0.000001 
0.000001 
0.000001 
0.000002 
0.000002 
0.000002 
0.000002 
0.000002 
0.000002 
0.000003 
0.000003 
0.000003 
0.000003 
0.000004 
0.000004 
0.000004 
0.000004 
0.000005 
0.000005 
0.000006 
0.000006 
0.000006 
0.000007 
0.000008 
0.000008 
0.000009 
0.000009 
0.000010 
0.000011 
0.000012 
0.000012 
0.000013 
0.000014 
0.000015 
0.000017 
0.000018 
0.000019 
0.000020 
0.000022 
0.000023 
0.000025 
0.000027 
0.000028 
0.000030 
0.000032 
0.000035 
0.000037 
0.000039 
0.000042 
0.000045 
0.000048 
0.000051 
0.000054 
0.000057 
0.000061 
0.000065 
0.000069 
0.000073 
0.000078 
0.000083 
0.000088 
0.000093 
0.000099 
0.000105 
0.000111 
0.000117 
0.000124 
0.000131 
0.000139 
0.000147 
0.000155 
0.000164 
0.000173 
0.000183 
0.000193 
0.000203 
0.000214 
0.000226 
0.000238 
0.000251 
0.000264 
0.000277 
0.000292 
0.000307 
0.000322 
0.000339 
0.000356 
0.000373 
0.000391 
0.000411 
0.000430 
0.000451 
0.000472 
0.000494 
0.000518 
0.000541 
0.000566 
0.000592 
0.000618 
0.000646 
0.000674 
0.000704 
0.000734 
0.000766 
0.000798 
0.000832 
0.000866 
0.000902 
0.000938 
0.000976 
0.001015 
0.001055 
0.001096 
0.001139 
0.001182 
0.001227 
0.001273 
0.001320 
0.001368 
0.001418 
0.001469 
0.001520 
0.001574 
0.001628 
0.001684 
0.001740 
0.001798 
0.001858 
0.001918 
0.001980 
0.002043 
0.002107 
0.002172 
0.002238 
0.002306 
0.002374 
0.002444 
0.002515 
0.002586 
0.002659 
0.002733 
0.002808 
0.002884 
0.002961 
0.003038 
0.003117 
0.003196 
0.003276 
0.003357 
0.003439 
0.003521 
0.003604 
0.003688 
0.003772 
0.003856 
0.003941 
0.004027 
0.004112 
0.004198 
0.004285 
0.004371 
0.004458 
0.004545 
0.004631 
0.004718 
0.004805 
0.004891 
0.004977 
0.005063 
0.005149 
0.005234 
0.005319 
0.005403 
0.005487 
0.005570 
0.005652 
0.005734 
0.005815 
0.005894 
0.005973 
0.006051 
0.006128 
0.006203 
0.006278 
0.006351 
0.006422 
0.006493 
0.006562 
0.006629 
0.006695 
0.006759 
0.006822 
0.006883 
0.006942 
0.006999 
0.007054 
0.007108 
0.007159 
0.007208 
0.007256 
0.007301 
0.007344 
0.007385 
0.007424 
0.007460 
0.007494 
0.007526 
0.007556 
0.007583 
0.007608 
0.007630 
0.007650 
0.007668 
0.007683 
0.007695 
0.007705 
0.007713 
0.007718 
0.007720 
0.000000 
0.000000 
0.000000 
0.000000 
0.000000 
0.000000 
0.000000 
0.000000 
0.000000 
0.000000 
0.000000 
0.000000 
0.000000 
0.000000 
0.000000 
0.000000 
0.000000 
0.000000 
0.000000 
0.000000 
0.000000 
0.000000 
0.000000 
0.000000 
0.000000 
0.000000 
0.000000 
0.000000 
0.000000 
0.000000 
0.000000 
0.000000 
0.000000 
0.000000 
0.000000 
0.000000 
0.000000 
0.000000 
0.000000 
0.000000 
0.000000 
0.000000 
0.000000 
0.000000 
0.000000 
0.000000 
0.000000 
0.000000 
0.000000 
0.000000 
0.000000 
0.000000 
0.000000 
0.000000 
0.000000 
0.000000 
0.000000 
0.000000 
0.000000 
0.000000 
0.000000 
0.000000 
0.000000 
0.000000 
0.000000 
0.000000 
0.000000 
0.000000 
0.000000 
0.000000 
0.000001 
0.000001 
0.000001 
0.000001 
0.000001 
0.000001 
0.000001 
0.000001 
0.000001 
0.000001 
0.000001 
0.000001 
0.000001 
0.000002 
0.000002 
0.000002 
0.000002 
0.000002 
0.000002 
0.000003 
0.000003 
0.000003 
0.000003 
0.000004 
0.000004 
0.000004 
0.000004 
0.000005 
0.000005 
0.000006 
0.000006 
0.000007 
0.000007 
0.000008 
0.000008 
0.000009 
0.000009 
0.000010 
0.000011 
0.000012 
0.000013 
0.000014 
0.000015 
0.000016 
0.000017 
0.000018 
0.000019 
0.000021 
0.000022 
0.000024 
0.000026 
0.000027 
0.000029 
0.000031 
0.000033 
0.000036 
0.000038 
0.000041 
0.000043 
0.000046 
0.000049 
0.000053 
0.000056 
0.000060 
0.000064 
0.000068 
0.000072 
0.000076 
0.000081 
0.000086 
0.000092 
0.000097 
0.000103 
0.000109 
0.000116 
0.000123 
0.000130 
0.000138 
0.000146 
0.000154 
0.000163 
0.000173 
0.000182 
0.000193 
0.000203 
0.000215 
0.000227 
0.000239 
0.000252 
0.000265 
0.000280 
0.000294 
0.000310 
0.000326 
0.000343 
0.000360 
0.000378 
0.000398 
0.000417 
0.000438 
0.000460 
0.000482 
0.000505 
0.000529 
0.000554 
0.000580 
0.000607 
0.000635 
0.000664 
0.000694 
0.000726 
0.000758 
0.000791 
0.000826 
0.000861 
0.000898 
0.000936 
0.000975 
0.001016 
0.001057 
0.001100 
0.001145 
0.001190 
0.001237 
0.001285 
0.001335 
0.001386 
0.001438 
0.001492 
0.001547 
0.001604 
0.001662 
0.001721 
0.001782 
0.001844 
0.001907 
0.001972 
0.002039 
0.002107 
0.002176 
0.002246 
0.002318 
0.002392 
0.002467 
0.002543 
0.002620 
0.002699 
0.002779 
0.002861 
0.002943 
0.003027 
0.003112 
0.003198 
0.003286 
0.003374 
0.003464 
0.003554 
0.003646 
0.003738 
0.003832 
0.003926 
0.004021 
0.004117 
0.004214 
0.004311 
0.004409 
0.004508 
0.004607 
0.004707 
0.004807 
0.004907 
0.005007 
0.005108 
0.005209 
0.005310 
0.005411 
0.005512 
0.005613 
0.005713 
0.005814 
0.005914 
0.006014 
0.006113 
0.006211 
0.006309 
0.006407 
0.006503 
0.006599 
0.006694 
0.006788 
0.006880 
0.006972 
0.007063 
0.007152 
0.007240 
0.007326 
0.007411 
0.007494 
0.007576 
0.007656 
0.007735 
0.007811 
0.007886 
0.007958 
0.008029 
0.008098 
0.008164 
0.008228 
0.008290 
0.008350 
0.008407 
0.008462 
0.008515 
0.008565 
0.008613 
0.008657 
0.008700 
0.008739 
0.008776 
0.008811 
0.008842 
0.008871 
0.008897 
0.008920 
0.008940 
0.008958 
0.008972 
0.008984 
0.008993 
0.008999 
0.009002 
0.000000 
0.000000 
0.000000 
0.000000 
0.000000 
0.000000 
0.000000 
0.000000 
0.000000 
0.000000 
0.000000 
0.000000 
0.000000 
0.000000 
0.000000 
0.000000 
0.000000 
0.000000 
0.000000 
0.000000 
0.000000 
0.000000 
0.000000 
0.000000 
0.000000 
0.000000 