# vtk DataFile Version 3.0
results.vtk
ASCII
DATASET RECTILINEAR_GRID
DIMENSIONS 301 301 1
X_COORDINATES 301 double
0.000000 0.003333 0.006667 0.010000 0.013333 0.016667 0.020000 0.023333 0.026667 0.030000 0.033333 0.036667 0.040000 0.043333 0.046667 0.050000 0.053333 0.056667 0.060000 0.063333 0.066667 0.070000 0.073333 0.076667 0.080000 0.083333 0.086667 0.090000 0.093333 0.096667 0.100000 0.103333 0.106667 0.110000 0.113333 0.116667 0.120000 0.123333 0.126667 0.130000 0.133333 0.136667 0.140000 0.143333 0.146667 0.150000 0.153333 0.156667 0.160000 0.163333 0.166667 0.170000 0.173333 0.176667 0.180000 0.183333 0.186667 0.190000 0.193333 0.196667 0.200000 0.203333 0.206667 0.210000 0.213333 0.216667 0.220000 0.223333 0.226667 0.230000 0.233333 0.236667 0.240000 0.243333 0.246667 0.250000 0.253333 0.256667 0.260000 0.263333 0.266667 0.270000 0.273333 0.276667 0.280000 0.283333 0.286667 0.290000 0.293333 0.296667 0.300000 0.303333 0.306667 0.310000 0.313333 0.316667 0.320000 0.323333 0.326667 0.330000 0.333333 0.336667 0.340000 0.343333 0.346667 0.350000 0.353333 0.356667 0.360000 0.363333 0.366667 0.370000 0.373333 0.376667 0.380000 0.383333 0.386667 0.390000 0.393333 0.396667 0.400000 0.403333 0.406667 0.410000 0.413333 0.416667 0.420000 0.423333 0.426667 0.430000 0.433333 0.436667 0.440000 0.443333 0.446667 0.450000 0.453333 0.456667 0.460000 0.463333 0.466667 0.470000 0.473333 0.476667 0.480000 0.483333 0.486667 0.490000 0.493333 0.496667 0.500000 0.503333 0.506667 0.510000 0.513333 0.516667 0.520000 0.523333 0.526667 0.530000 0.533333 0.536667 0.540000 0.543333 0.546667 0.550000 0.553333 0.556667 0.560000 0.563333 0.566667 0.570000 0.573333 0.576667 0.580000 0.583333 0.586667 0.590000 0.593333 0.596667 0.600000 0.603333 0.606667 0.610000 0.613333 0.616667 0.620000 0.623333 0.626667 0.630000 0.633333 0.636667 0.640000 0.643333 0.646667 0.650000 0.653333 0.656667 0.660000 0.663333 0.666667 0.670000 0.673333 0.676667 0.680000 0.683333 0.686667 0.690000 0.693333 0.696667 0.700000 0.703333 0.706667 0.710000 0.713333 0.716667 0.720000 0.723333 0.726667 0.730000 0.733333 0.736667 0.740000 0.743333 0.746667 0.750000 0.753333 0.756667 0.760000 0.763333 0.766667 0.770000 0.773333 0.776667 0.780000 0.783333 0.786667 0.790000 0.793333 0.796667 0.800000 0.803333 0.806667 0.810000 0.813333 0.816667 0.820000 0.823333 0.826667 0.830000 0.833333 0.836667 0.840000 0.843333 0.846667 0.850000 0.853333 0.856667 0.860000 0.863333 0.866667 0.870000 0.873333 0.876667 0.880000 0.883333 0.886667 0.890000 0.893333 0.896667 0.900000 0.903333 0.906667 0.910000 0.913333 0.916667 0.920000 0.923333 0.926667 0.930000 0.933333 0.936667 0.940000 0.943333 0.946667 0.950000 0.953333 0.956667 0.960000 0.963333 0.966667 0.970000 0.973333 0.976667 0.980000 0.983333 0.986667 0.990000 0.993333 0.996667 1.000000 
Y_COORDINATES 301 double
0.000000 0.003333 0.006667 0.010000 0.013333 0.016667 0.020000 0.023333 0.026667 0.030000 0.033333 0.036667 0.040000 0.043333 0.046667 0.050000 0.053333 0.056667 0.060000 0.063333 0.066667 0.070000 0.073333 0.076667 0.080000 0.083333 0.086667 0.090000 0.093333 0.096667 0.100000 0.103333 0.106667 0.110000 0.113333 0.116667 0.120000 0.123333 0.126667 0.130000 0.133333 0.136667 0.140000 0.143333 0.146667 0.150000 0.153333 0.156667 0.160000 0.163333 0.166667 0.170000 0.173333 0.176667 0.180000 0.183333 0.186667 0.190000 0.193333 0.196667 0.200000 0.203333 0.206667 0.210000 0.213333 0.216667 0.220000 0.223333 0.226667 0.230000 0.233333 0.236667 0.240000 0.243333 0.246667 0.250000 0.253333 0.256667 0.260000 0.263333 0.266667 0.270000 0.273333 0.276667 0.280000 0.283333 0.286667 0.290000 0.293333 0.296667 0.300000 0.303333 0.306667 0.310000 0.313333 0.316667 0.320000 0.323333 0.326667 0.330000 0.333333 0.336667 0.340000 0.343333 0.346667 0.350000 0.353333 0.356667 0.360000 0.363333 0.366667 0.370000 0.373333 0.376667 0.380000 0.383333 0.386667 0.390000 0.393333 0.396667 0.400000 0.403333 0.406667 0.410000 0.413333 0.416667 0.420000 0.423333 0.426667 0.430000 0.433333 0.436667 0.440000 0.443333 0.446667 0.450000 0.453333 0.456667 0.460000 0.463333 0.466667 0.470000 0.473333 0.476667 0.480000 0.483333 0.486667 0.490000 0.493333 0.496667 0.500000 0.503333 0.506667 0.510000 0.513333 0.516667 0.520000 0.523333 0.526667 0.530000 0.533333 0.536667 0.540000 0.543333 0.546667 0.550000 0.553333 0.556667 0.560000 0.563333 0.566667 0.570000 0.573333 0.576667 0.580000 0.583333 0.586667 0.590000 0.593333 0.596667 0.600000 0.603333 0.606667 0.610000 0.613333 0.616667 0.620000 0.623333 0.626667 0.630000 0.633333 0.636667 0.640000 0.643333 0.646667 0.650000 0.653333 0.656667 0.660000 0.663333 0.666667 0.670000 0.673333 0.676667 0.680000 0.683333 0.686667 0.690000 0.693333 0.696667 0.700000 0.703333 0.706667 0.710000 0.713333 0.716667 0.720000 0.723333 0.726667 0.730000 0.733333 0.736667 0.740000 0.743333 0.746667 0.750000 0.753333 0.756667 0.760000 0.763333 0.766667 0.770000 0.773333 0.776667 0.780000 0.783333 0.786667 0.790000 0.793333 0.796667 0.800000 0.803333 0.806667 0.810000 0.813333 0.816667 0.820000 0.823333 0.826667 0.830000 0.833333 0.836667 0.840000 0.843333 0.846667 0.850000 0.853333 0.856667 0.860000 0.863333 0.866667 0.870000 0.873333 0.876667 0.880000 0.883333 0.886667 0.890000 0.893333 0.896667 0.900000 0.903333 0.906667 0.910000 0.913333 0.916667 0.920000 0.923333 0.926667 0.930000 0.933333 0.936667 0.940000 0.943333 0.946667 0.950000 0.953333 0.956667 0.960000 0.963333 0.966667 0.970000 0.973333 0.976667 0.980000 0.983333 0.986667 0.990000 0.993333 0.996667 1.000000 
Z_COORDINATES 1 double
0
POINT_DATA 90601 
FIELD FieldData 1 
Concentração 1 90601 double 
0.000000 
0.000000 
0.000000 
0.000000 
0.000000 
0.000000 
0.000000 
0.000000 
0.000000 
0.000000 
0.000000 
0.000000 
0.000000 
0.000000 
0.000000 
0.000000 
0.000000 
0.000000 
0.000000 
0.000000 
0.000000 
0.000000 
0.000000 
0.000000 
0.000000 
0.000000 
0.000000 
0.000000 
0.000000 
0.000000 
0.000000 
0.000000 
0.000000 
0.000000 
0.000000 
0.000000 
0.000000 
0.000000 
0.000000 
0.000000 
0.000000 
0.000000 
0.000000 
0.000000 
0.000000 
0.000000 
0.000000 
0.000000 
0.000000 
0.000000 
0.000000 
0.000000 
0.000000 
0.000000 
0.000000 
0.000000 
0.000000 
0.000000 
0.000000 
0.000000 
0.000000 
0.000000 
0.000000 
0.000000 
0.000000 
0.000000 
0.000000 
0.000000 
0.000000 
0.000000 
0.000000 
0.000000 
0.000000 
0.000000 
0.000000 
0.000000 
0.000000 
0.000000 
0.000000 
0.000000 
0.000001 
0.000001 
0.000001 
0.000001 
0.000001 
0.000001 
0.000001 
0.000001 
0.000001 
0.000001 
0.000001 
0.000001 
0.000001 
0.000001 
0.000002 
0.000002 
0.000002 
0.000002 
0.000002 
0.000002 
0.000002 
0.000003 
0.000003 
0.000003 
0.000003 
0.000003 
0.000004 
0.000004 
0.000004 
0.000005 
0.000005 
0.000005 
0.000006 
0.000006 
0.000007 
0.000007 
0.000007 
0.000008 
0.000009 
0.000009 
0.000010 
0.000010 
0.000011 
0.000012 
0.000013 
0.000013 
0.000014 
0.000015 
0.000016 
0.000017 
0.000018 
0.000020 
0.000021 
0.000022 
0.000023 
0.000025 
0.000026 
0.000028 
0.000030 
0.000031 
0.000033 
0.000035 
0.000037 
0.000040 
0.000042 
0.000044 
0.000047 
0.000049 
0.000052 
0.000055 
0.000058 
0.000061 
0.000065 
0.000068 
0.000072 
0.000076 
0.000080 
0.000084 
0.000088 
0.000093 
0.000097 
0.000102 
0.000107 
0.000113 
0.000118 
0.000124 
0.000130 
0.000136 
0.000143 
0.000150 
0.000157 
0.000164 
0.000171 
0.000179 
0.000187 
0.000196 
0.000204 
0.000213 
0.000223 
0.000232 
0.000242 
0.000252 
0.000263 
0.000274 
0.000285 
0.000297 
0.000308 
0.000321 
0.000333 
0.000346 
0.000360 
0.000373 
0.000387 
0.000402 
0.000417 
0.000432 
0.000447 
0.000463 
0.000479 
0.000496 
0.000513 
0.000531 
0.000548 
0.000567 
0.000585 
0.000604 
0.000624 
0.000643 
0.000663 
0.000684 
0.000705 
0.000726 
0.000747 
0.000769 
0.000791 
0.000814 
0.000837 
0.000860 
0.000883 
0.000907 
0.000931 
0.000956 
0.000980 
0.001005 
0.001030 
0.001056 
0.001081 
0.001107 
0.001133 
0.001160 
0.001186 
0.001213 
0.001240 
0.001267 
0.001294 
0.001321 
0.001348 
0.001375 
0.001403 
0.001430 
0.001458 
0.001485 
0.001513 
0.001541 
0.001568 
0.001596 
0.001623 
0.001650 
0.001677 
0.001704 
0.001731 
0.001758 
0.001785 
0.001811 
0.001837 
0.001863 
0.001889 
0.001915 
0.001940 
0.001965 
0.001989 
0.002013 
0.002037 
0.002061 
0.002084 
0.002107 
0.002129 
0.002151 
0.002172 
0.002193 
0.002213 
0.002233 
0.002253 
0.002272 
0.002290 
0.002308 
0.002325 
0.002342 
0.002358 
0.002373 
0.002388 
0.002402 
0.002416 
0.002429 
0.002441 
0.002453 
0.002463 
0.002474 
0.002483 
0.002492 
0.002500 
0.002507 
0.002514 
0.002520 
0.002525 
0.002530 
0.002533 
0.002536 
0.002539 
0.002540 
0.002541 
0.000000 
0.000000 
0.000000 
0.000000 
0.000000 
0.000000 
0.000000 
0.000000 
0.000000 
0.000000 
0.000000 
0.000000 
0.000000 
0.000000 
0.000000 
0.000000 
0.000000 
0.000000 
0.000000 
0.000000 
0.000000 
0.000000 
0.000000 
0.000000 
0.000000 
0.000000 
0.000000 
0.000000 
0.000000 
0.000000 
0.000000 
0.000000 
0.000000 
0.000000 
0.000000 
0.000000 
0.000000 
0.000000 
0.000000 
0.000000 
0.000000 
0.000000 
0.000000 
0.000000 
0.000000 
0.000000 
0.000000 
0.000000 
0.000000 
0.000000 
0.000000 
0.000000 
0.000000 
0.000000 
0.000000 
0.000000 
0.000000 
0.000000 
0.000000 
0.000000 
0.000000 
0.000000 
0.000000 
0.000000 
0.000000 
0.000000 
0.000000 
0.000000 
0.000000 
0.000000 
0.000000 
0.000000 
0.000001 
0.000001 
0.000001 
0.000001 
0.000001 
0.000001 
0.000001 
0.000001 
0.000001 
0.000001 
0.000001 
0.000001 
0.000001 
0.000002 
0.000002 
0.000002 
0.000002 
0.000002 
0.000002 
0.000002 
0.000003 
0.000003 
0.000003 
0.000003 
0.000004 
0.000004 
0.000004 
0.000005 
0.000005 
0.000005 
0.000006 
0.000006 
0.000007 
0.000007 
0.000008 
0.000008 
0.000009 
0.000009 
0.000010 
0.000011 
0.000011 
0.000012 
0.000013 
0.000014 
0.000015 
0.000016 
0.000017 
0.000018 
0.000020 
0.000021 
0.000022 
0.000024 
0.000025 
0.000027 
0.000029 
0.000031 
0.000033 
0.000035 
0.000037 
0.000039 
0.000042 
0.000044 
0.000047 
0.000050 
0.000053 
0.000056 
0.000060 
0.000063 
0.000067 
0.000071 
0.000075 
0.000080 
0.000084 
0.000089 
0.000094 
0.000099 
0.000105 
0.000111 
0.000117 
0.000123 
0.000130 
0.000137 
0.000144 
0.000152 
0.000160 
0.000168 
0.000177 
0.000186 
0.000196 
0.000206 
0.000216 
0.000227 
0.000238 
0.000250 
0.000262 
0.000274 
0.000287 
0.000301 
0.000315 
0.000330 
0.000345 
0.000360 
0.000377 
0.000393 
0.000411 
0.000429 
0.000448 
0.000467 
0.000487 
0.000507 
0.000528 
0.000550 
0.000573 
0.000596 
0.000620 
0.000644 
0.000670 
0.000696 
0.000722 
0.000750 
0.000778 
0.000807 
0.000837 
0.000867 
0.000898 
0.000930 
0.000963 
0.000997 
0.001031 
0.001066 
0.001102 
0.001138 
0.001176 
0.001214 
0.001252 
0.001292 
0.001332 
0.001373 
0.001415 
0.001457 
0.001501 
0.001545 
0.001589 
0.001634 
0.001680 
0.001727 
0.001774 
0.001821 
0.001870 
0.001919 
0.001968 
0.002018 
0.002069 
0.002120 
0.002171 
0.002223 
0.002275 
0.002328 
0.002381 
0.002435 
0.002488 
0.002542 
0.002597 
0.002651 
0.002706 
0.002761 
0.002816 
0.002871 
0.002926 
0.002981 
0.003037 
0.003092 
0.003147 
0.003202 
0.003257 
0.003312 
0.003366 
0.003420 
0.003474 
0.003528 
0.003581 
0.003634 
0.003687 
0.003739 
0.003790 
0.003841 
0.003892 
0.003942 
0.003991 
0.004039 
0.004087 
0.004134 
0.004181 
0.004226 
0.004271 
0.004315 
0.004357 
0.004399 
0.004440 
0.004480 
0.004519 
0.004557 
0.004594 
0.004629 
0.004664 
0.004697 
0.004729 
0.004760 
0.004790 
0.004818 
0.004846 
0.004871 
0.004896 
0.004919 
0.004941 
0.004961 
0.004980 
0.004998 
0.005014 
0.005029 
0.005042 
0.005054 
0.005065 
0.005074 
0.005081 
0.005087 
0.005091 
0.005094 
0.005096 
0.000000 
0.000000 
0.000000 
0.000000 
0.000000 
0.000000 
0.000000 
0.000000 
0.000000 
0.000000 
0.000000 
0.000000 
0.000000 
0.000000 
0.000000 
0.000000 
0.000000 
0.000000 
0.000000 
0.000000 
0.000000 
0.000000 
0.000000 
0.000000 
0.000000 
0.000000 
0.000000 
0.000000 
0.000000 
0.000000 
0.000000 
0.000000 
0.000000 
0.000000 
0.000000 
0.000000 
0.000000 
0.000000 
0.000000 
0.000000 
0.000000 
0.000000 
0.000000 
0.000000 
0.000000 
0.000000 
0.000000 
0.000000 
0.000000 
0.000000 
0.000000 
0.000000 
0.000000 
0.000000 
0.000000 
0.000000 
0.000000 
0.000000 
0.000000 
0.000000 
0.000000 
0.000000 
0.000000 
0.000000 
0.000000 
0.000000 
0.000000 
0.000001 
0.000001 
0.000001 
0.000001 
0.000001 
0.000001 
0.000001 
0.000001 
0.000001 
0.000001 
0.000001 
0.000001 
0.000001 
0.000002 
0.000002 
0.000002 
0.000002 
0.000002 
0.000002 
0.000003 
0.000003 
0.000003 
0.000003 
0.000003 
0.000004 
0.000004 
0.000004 
0.000005 
0.000005 
0.000005 
0.000006 
0.000006 
0.000007 
0.000007 
0.000008 
0.000009 
0.000009 
0.000010 
0.000011 
0.000011 
0.000012 
0.000013 
0.000014 
0.000015 
0.000016 
0.000017 
0.000019 
0.000020 
0.000021 
0.000023 
0.000024 
0.000026 
0.000028 
0.000030 
0.000032 
0.000034 
0.000036 
0.000038 
0.000041 
0.000044 
0.000046 
0.000049 
0.000053 
0.000056 
0.000059 
0.000063 
0.000067 
0.000071 
0.000076 
0.000080 
0.000085 
0.000090 
0.000096 
0.000101 
0.000107 
0.000114 
0.000120 
0.000127 
0.000135 
0.000142 
0.000150 
0.000159 
0.000168 
0.000177 
0.000187 
0.000197 
0.000207 
0.000218 
0.000230 
0.000242 
0.000255 
0.000268 
0.000282 
0.000296 
0.000311 
0.000327 
0.000343 
0.000360 
0.000378 
0.000396 
0.000415 
0.000435 
0.000455 
0.000476 
0.000498 
0.000521 
0.000545 
0.000570 
0.000595 
0.000621 
0.000649 
0.000677 
0.000706 
0.000736 
0.000767 
0.000799 
0.000832 
0.000866 
0.000901 
0.000937 
0.000974 
0.001012 
0.001052 
0.001092 
0.001134 
0.001176 
0.001220 
0.001265 
0.001311 
0.001358 
0.001406 
0.001456 
0.001506 
0.001558 
0.001611 
0.001665 
0.001720 
0.001776 
0.001834 
0.001892 
0.001952 
0.002013 
0.002075 
0.002138 
0.002202 
0.002267 
0.002333 
0.002400 
0.002468 
0.002537 
0.002608 
0.002679 
0.002751 
0.002823 
0.002897 
0.002972 
0.003047 
0.003123 
0.003200 
0.003278 
0.003356 
0.003435 
0.003514 
0.003594 
0.003675 
0.003756 
0.003837 
0.003919 
0.004001 
0.004084 
0.004166 
0.004249 
0.004332 
0.004415 
0.004499 
0.004582 
0.004665 
0.004748 
0.004831 
0.004913 
0.004996 
0.005078 
0.005159 
0.005241 
0.005321 
0.005402 
0.005481 
0.005560 
0.005639 
0.005716 
0.005793 
0.005869 
0.005944 
0.006018 
0.006091 
0.006163 
0.006234 
0.006303 
0.006372 
0.006439 
0.006505 
0.006569 
0.006632 
0.006694 
0.006754 
0.006813 
0.006869 
0.006925 
0.006978 
0.007030 
0.007080 
0.007129 
0.007175 
0.007220 
0.007263 
0.007303 
0.007342 
0.007379 
0.007414 
0.007447 
0.007477 
0.007506 
0.007533 
0.007557 
0.007579 
0.007599 
0.007617 
0.007633 
0.007646 
0.007657 
0.007666 
0.007673 
0.007678 
0.007680 
0.000000 
0.000000 
0.000000 
0.000000 
0.000000 
0.000000 
0.000000 
0.000000 
0.000000 
0.000000 
0.000000 
0.000000 
0.000000 
0.000000 
0.000000 
0.000000 
0.000000 
0.000000 
0.000000 
0.000000 
0.000000 
0.000000 
0.000000 
0.000000 
0.000000 
0.000000 
0.000000 
0.000000 
0.000000 
0.000000 
0.000000 
0.000000 
0.000000 
0.000000 
0.000000 
0.000000 
0.000000 
0.000000 
0.000000 
0.000000 
0.000000 
0.000000 
0.000000 
0.000000 
0.000000 
0.000000 
0.000000 
0.000000 
0.000000 
0.000000 
0.000000 
0.000000 
0.000000 
0.000000 
0.000000 
0.000000 
0.000000 
0.000000 
0.000000 
0.000000 
0.000000 
0.000000 
0.000000 
0.000001 
0.000001 
0.000001 
0.000001 
0.000001 
0.000001 
0.000001 
0.000001 
0.000001 
0.000001 
0.000001 
0.000001 
0.000001 
0.000002 
0.000002 
0.000002 
0.000002 
0.000002 
0.000002 
0.000002 
0.000003 
0.000003 
0.000003 
0.000003 
0.000004 
0.000004 
0.000004 
0.000005 
0.000005 
0.000005 
0.000006 
0.000006 
0.000007 
0.000007 
0.000008 
0.000009 
0.000009 
0.000010 
0.000011 
0.000012 
0.000012 
0.000013 
0.000014 
0.000015 
0.000016 
0.000018 
0.000019 
0.000020 
0.000022 
0.000023 
0.000025 
0.000027 
0.000029 
0.000031 
0.000033 
0.000035 
0.000037 
0.000040 
0.000043 
0.000046 
0.000049 
0.000052 
0.000055 
0.000059 
0.000063 
0.000067 
0.000071 
0.000076 
0.000080 
0.000085 
0.000091 
0.000096 
0.000102 
0.000108 
0.000115 
0.000122 
0.000129 
0.000137 
0.000145 
0.000154 
0.000163 
0.000172 
0.000182 
0.000192 
0.000203 
0.000214 
0.000226 
0.000239 
0.000252 
0.000266 
0.000280 
0.000295 
0.000310 
0.000327 
0.000344 
0.000362 
0.000380 
0.000400 
0.000420 
0.000441 
0.000463 
0.000486 
0.000509 
0.000534 
0.000560 
0.000586 
0.000614 
0.000643 
0.000672 
0.000703 
0.000735 
0.000768 
0.000802 
0.000838 
0.000875 
0.000913 
0.000952 
0.000992 
0.001034 
0.001077 
0.001122 
0.001167 
0.001215 
0.001263 
0.001313 
0.001365 
0.001418 
0.001472 
0.001528 
0.001585 
0.001644 
0.001704 
0.001766 
0.001830 
0.001895 
0.001961 
0.002029 
0.002099 
0.002170 
0.002242 
0.002317 
0.002392 
0.002470 
0.002548 
0.002628 
0.002710 
0.002793 
0.002878 
0.002964 
0.003052 
0.003141 
0.003231 
0.003322 
0.003415 
0.003510 
0.003605 
0.003702 
0.003800 
0.003899 
0.003999 
0.004100 
0.004202 
0.004305 
0.004410 
0.004515 
0.004620 
0.004727 
0.004835 
0.004943 
0.005051 
0.005160 
0.005270 
0.005380 
0.005491 
0.005602 
0.005713 
0.005824 
0.005936 
0.006047 
0.006159 
0.006270 
0.006382 
0.006493 
0.006603 
0.006714 
0.006824 
0.006933 
0.007042 
0.007150 
0.007258 
0.007365 
0.007470 
0.007575 
0.007679 
0.007782 
0.007884 
0.007984 
0.008083 
0.008181 
0.008277 
0.008372 
0.008465 
0.008557 
0.008647 
0.008735 
0.008821 
0.008906 
0.008988 
0.009069 
0.009147 
0.009223 
0.009297 
0.009369 
0.009438 
0.009505 
0.009570 
0.009632 
0.009692 
0.009749 
0.009804 
0.009856 
0.009905 
0.009952 
0.009995 
0.010036 
0.010075 
0.010110 
0.010143 
0.010172 
0.010199 
0.010223 
0.010244 
0.010262 
0.010277 
0.010289 
0.010298 
0.010304 
0.010307 
0.000000 
0.000000 
0.000000 
0.000000 
0.000000 
0.000000 
0.000000 
0.000000 
0.000000 
0.000000 
0.000000 
0.000000 
0.000000 
0.000000 
0.000000 
0.000000 
0.000000 
0.000000 
0.000000 
0.000000 
0.000000 
0.000000 
0.000000 
0.000000 
0.000000 
0.000000 
0.000000 
0.000000 
0.000000 
0.000000 
0.000000 
0.000000 
0.000000 
0.000000 
0.000000 
0.000000 
0.000000 
0.000000 
0.000000 
0.000000 
0.000000 
0.000000 
0.000000 
0.000000 
0.000000 
0.000000 
0.000000 
0.000000 
0.000000 
0.000000 
0.000000 
0.000000 
0.000000 
0.000000 
0.000000 
0.000000 
0.000000 
0.000000 
0.000000 
0.000000 
0.000000 
0.000001 
0.000001 
0.000001 
0.000001 
0.000001 
0.000001 
0.000001 
0.000001 
0.000001 
0.000001 
0.000001 
0.000001 
0.000002 
0.000002 
0.000002 
0.000002 
0.000002 
0.000002 
0.000002 
0.000003 
0.000003 
0.000003 
0.000003 
0.000004 
0.000004 
0.000004 
0.000005 
0.000005 
0.000006 
0.000006 
0.000006 
0.000007 
0.000007 
0.000008 
0.000009 
0.000009 
0.000010 
0.000011 
0.000012 
0.000013 
0.000014 
0.000015 
0.000016 
0.000017 
0.000018 
0.000020 
0.000021 
0.000022 
0.000024 
0.000026 
0.000028 
0.000030 
0.000032 
0.000034 
0.000036 
0.000039 
0.000042 
0.000045 
0.000048 
0.000051 
0.000054 
0.000058 
0.000062 
0.000066 
0.000070 
0.000075 
0.000080 
0.000085 
0.000090 
0.000096 
0.000102 
0.000108 
0.000115 
0.000122 
0.000130 
0.000138 
0.000146 
0.000155 
0.000164 
0.000174 
0.000184 
0.000195 
0.000206 
0.000218 
0.000231 
0.000244 
0.000258 
0.000272 
0.000287 
0.000303 
0.000320 
0.000337 
0.000355 
0.000374 
0.000394 
0.000415 
0.000436 
0.000459 
0.000483 
0.000507 
0.000533 
0.000560 
0.000587 
0.000616 
0.000646 
0.000678 
0.000710 
0.000744 
0.000779 
0.000815 
0.000853 
0.000892 
0.000932 
0.000974 
0.001018 
0.001063 
0.001109 
0.001157 
0.001207 
0.001258 
0.001311 
0.001366 
0.001422 
0.001480 
0.001540 
0.001601 
0.001664 
0.001730 
0.001796 
0.001865 
0.001936 
0.002009 
0.002083 
0.002159 
0.002238 
0.002318 
0.002400 
0.002484 
0.002570 
0.002658 
0.002748 
0.002840 
0.002933 
0.003029 
0.003127 
0.003226 
0.003328 
0.003431 
0.003536 
0.003643 
0.003751 
0.003862 
0.003974 
0.004088 
0.004204 
0.004321 
0.004440 
0.004560 
0.004683 
0.004806 
0.004931 
0.005057 
0.005185 
0.005314 
0.005444 
0.005575 
0.005708 
0.005841 
0.005976 
0.006111 
0.006247 
0.006384 
0.006522 
0.006660 
0.006799 
0.006938 
0.007078 
0.007218 
0.007358 
0.007498 
0.007639 
0.007779 
0.007919 
0.008059 
0.008199 
0.008338 
0.008477 
0.008616 
0.008753 
0.008890 
0.009027 
0.009162 
0.009296 
0.009429 
0.009561 
0.009692 
0.009821 
0.009949 
0.010075 
0.010200 
0.010322 
0.010444 
0.010563 
0.010680 
0.010795 
0.010908 
0.011019 
0.011127 
0.011233 
0.011337 
0.011438 
0.011536 
0.011632 
0.011725 
0.011815 
0.011902 
0.011986 
0.012067 
0.012145 
0.012220 
0.012292 
0.012361 
0.012426 
0.012488 
0.012546 
0.012601 
0.012653 
0.012701 
0.012745 
0.012786 
0.012824 
0.012857 
0.012887 
0.012913 
0.012936 
0.012955 
0.012970 
0.012981 
0.012989 
0.012992 
0.000000 
0.000000 
0.000000 
0.000000 
0.000000 
0.000000 
0.000000 
0.000000 
0.000000 
0.000000 
0.000000 
0.000000 
0.000000 
0.000000 
0.000000 
0.000000 
0.000000 
0.000000 
0.000000 
0.000000 
0.000000 
0.000000 
0.000000 
0.000000 
0.000000 
0.000000 
0.000000 
0.000000 
0.000000 
0.000000 
0.000000 
0.000000 
0.000000 
0.000000 
0.000000 
0.000000 
0.000000 
0.000000 
0.000000 
0.000000 
0.000000 
0.000000 
0.000000 
0.000000 
0.000000 
0.000000 
0.000000 
0.000000 
0.000000 
0.000000 
0.000000 
0.000000 
0.000000 
0.000000 
0.000000 
0.000000 
0.000000 
0.000000 
0.000001 
0.000001 
0.000001 
0.000001 
0.000001 
0.000001 
0.000001 
0.000001 
0.000001 
0.000001 
0.000001 
0.000001 
0.000001 
0.000002 
0.000002 
0.000002 
0.000002 
0.000002 
0.000002 
0.000003 
0.000003 
0.000003 
0.000003 
0.000004 
0.000004 
0.000004 
0.000005 
0.000005 
0.000005 
0.000006 
0.000006 
0.000007 
0.000007 
0.000008 
0.000009 
0.000009 
0.000010 
0.000011 
0.000012 
0.000012 
0.000013 
0.000014 
0.000015 
0.000017 
0.000018 
0.000019 
0.000021 
0.000022 
0.000024 
0.000026 
0.000028 
0.000030 
0.000032 
0.000034 
0.000036 
0.000039 
0.000042 
0.000045 
0.000048 
0.000051 
0.000054 
0.000058 
0.000062 
0.000066 
0.000071 
0.000076 
0.000081 
0.000086 
0.000091 
0.000097 
0.000104 
0.000110 
0.000117 
0.000125 
0.000133 
0.000141 
0.000150 
0.000159 
0.000169 
0.000179 
0.000190 
0.000201 
0.000213 
0.000225 
0.000239 
0.000252 
0.000267 
0.000282 
0.000298 
0.000315 
0.000333 
0.000351 
0.000371 
0.000391 
0.000412 
0.000434 
0.000458 
0.000482 
0.000507 
0.000534 
0.000561 
0.000590 
0.000620 
0.000651 
0.000684 
0.000718 
0.000753 
0.000790 
0.000828 
0.000868 
0.000909 
0.000951 
0.000996 
0.001042 
0.001089 
0.001139 
0.001190 
0.001243 
0.001298 
0.001354 
0.001413 
0.001474 
0.001536 
0.001601 
0.001667 
0.001736 
0.001806 
0.001879 
0.001954 
0.002031 
0.002111 
0.002192 
0.002276 
0.002362 
0.002450 
0.002541 
0.002634 
0.002729 
0.002827 
0.002927 
0.003029 
0.003134 
0.003241 
0.003350 
0.003462 
0.003576 
0.003692 
0.003811 
0.003932 
0.004055 
0.004180 
0.004308 
0.004438 
0.004570 
0.004704 
0.004841 
0.004979 
0.005119 
0.005262 
0.005406 
0.005552 
0.005700 
0.005850 
0.006002 
0.006155 
0.006310 
0.006466 
0.006624 
0.006784 
0.006944 
0.007106 
0.007269 
0.007433 
0.007598 
0.007764 
0.007931 
0.008098 
0.008266 
0.008435 
0.008604 
0.008774 
0.008943 
0.009113 
0.009283 
0.009453 
0.009623 
0.009792 
0.009961 
0.010130 
0.010298 
0.010465 
0.010632 
0.010798 
0.010962 
0.011126 
0.011288 
0.011449 
0.011608 
0.011766 
0.011922 
0.012077 
0.012229 
0.012380 
0.012528 
0.012675 
0.012819 
0.012960 
0.013099 
0.013235 
0.013369 
0.013500 
0.013628 
0.013753 
0.013875 
0.013994 
0.014109 
0.014221 
0.014330 
0.014435 
0.014537 
0.014635 
0.014729 
0.014819 
0.014906 
0.014989 
0.015067 
0.015142 
0.015212 
0.015279 
0.015341 
0.015399 
0.015453 
0.015502 
0.015547 
0.015587 
0.015624 
0.015655 
0.015682 
0.015705 
0.015723 
0.015737 
0.015746 
0.015751 
0.000000 
0.000000 
0.000000 
0.000000 
0.000000 
0.000000 
0.000000 
0.000000 
0.000000 
0.000000 
0.000000 
0.000000 
0.000000 
0.000000 
0.000000 
0.000000 
0.000000 
0.000000 
0.000000 
0.000000 
0.000000 
0.000000 
0.000000 
0.000000 
0.000000 
0.000000 
0.000000 
0.000000 
0.000000 
0.000000 
0.000000 
0.000000 
0.000000 
0.000000 
0.000000 
0.000000 
0.000000 
0.000000 
0.000000 
0.000000 
0.000000 
0.000000 
0.000000 
0.000000 
0.000000 
0.000000 
0.000000 
0.000000 
0.000000 
0.000000 
0.000000 
0.000000 
0.000000 
0.000000 
0.000000 
0.000000 
0.000001 
0.000001 
0.000001 
0.000001 
0.000001 
0.000001 
0.000001 
0.000001 
0.000001 
0.000001 
0.000001 
0.000001 
0.000001 
0.000002 
0.000002 
0.000002 
0.000002 
0.000002 
0.000002 
0.000003 
0.000003 
0.000003 
0.000003 
0.000004 
0.000004 
0.000004 
0.000005 
0.000005 
0.000005 
0.000006 
0.000006 
0.000007 
0.000007 
0.000008 
0.000009 
0.000009 
0.000010 
0.000011 
0.000012 
0.000013 
0.000014 
0.000015 
0.000016 
0.000017 
0.000019 
0.000020 
0.000021 
0.000023 
0.000025 
0.000027 
0.000029 
0.000031 
0.000033 
0.000035 
0.000038 
0.000041 
0.000043 
0.000046 
0.000050 
0.000053 
0.000057 
0.000061 
0.000065 
0.000070 
0.000074 
0.000079 
0.000085 
0.000090 
0.000096 
0.000102 
0.000109 
0.000116 
0.000124 
0.000132 
0.000140 
0.000149 
0.000158 
0.000168 
0.000179 
0.000190 
0.000201 
0.000213 
0.000226 
0.000240 
0.000254 
0.000269 
0.000285 
0.000301 
0.000318 
0.000337 
0.000356 
0.000376 
0.000397 
0.000419 
0.000442 
0.000466 
0.000491 
0.000518 
0.000546 
0.000574 
0.000605 
0.000636 
0.000669 
0.000703 
0.000739 
0.000776 
0.000815 
0.000855 
0.000897 
0.000941 
0.000987 
0.001034 
0.001083 
0.001134 
0.001186 
0.001241 
0.001298 
0.001357 
0.001417 
0.001480 
0.001545 
0.001613 
0.001682 
0.001754 
0.001829 
0.001905 
0.001984 
0.002066 
0.002150 
0.002236 
0.002325 
0.002417 
0.002511 
0.002608 
0.002707 
0.002809 
0.002914 
0.003022 
0.003132 
0.003245 
0.003361 
0.003479 
0.003601 
0.003725 
0.003852 
0.003981 
0.004114 
0.004249 
0.004387 
0.004527 
0.004670 
0.004816 
0.004965 
0.005116 
0.005270 
0.005426 
0.005585 
0.005746 
0.005910 
0.006076 
0.006245 
0.006415 
0.006588 
0.006763 
0.006940 
0.007120 
0.007301 
0.007484 
0.007668 
0.007855 
0.008043 
0.008233 
0.008424 
0.008616 
0.008810 
0.009004 
0.009200 
0.009397 
0.009595 
0.009793 
0.009992 
0.010191 
0.010391 
0.010591 
0.010792 
0.010992 
0.011192 
0.011392 
0.011592 
0.011791 
0.011990 
0.012188 
0.012385 
0.012581 
0.012776 
0.012969 
0.013162 
0.013353 
0.013542 
0.013730 
0.013915 
0.014099 
0.014281 
0.014460 
0.014637 
0.014812 
0.014984 
0.015153 
0.015319 
0.015482 
0.015643 
0.015800 
0.015954 
0.016104 
0.016251 
0.016394 
0.016533 
0.016669 
0.016801 
0.016928 
0.017052 
0.017171 
0.017286 
0.017397 
0.017503 
0.017605 
0.017702 
0.017794 
0.017882 
0.017965 
0.018043 
0.018115 
0.018183 
0.018246 
0.018304 
0.018357 
0.018405 
0.018447 
0.018484 
0.018516 
0.018543 
0.018564 
0.018580 
0.018591 
0.018596 
0.000000 
0.000000 
0.000000 
0.000000 
0.000000 
0.000000 
0.000000 
0.000000 
0.000000 
0.000000 
0.000000 
0.000000 
0.000000 
0.000000 
0.000000 
0.000000 
0.000000 
0.000000 
0.000000 
0.000000 
0.000000 
0.000000 
0.000000 
0.000000 
0.000000 
0.000000 
0.000000 
0.000000 
0.000000 
0.000000 
0.000000 
0.000000 
0.000000 
0.000000 
0.000000 
0.000000 
0.000000 
0.000000 
0.000000 
0.000000 
0.000000 
0.000000 
0.000000 
0.000000 
0.000000 
0.000000 
0.000000 
0.000000 
0.000000 
0.000000 
0.000000 
0.000000 
0.000000 
0.000000 
0.000000 
0.000001 
0.000001 
0.000001 
0.000001 
0.000001 
0.000001 
0.000001 
0.000001 
0.000001 
0.000001 
0.000001 
0.000001 
0.000002 
0.000002 
0.000002 
0.000002 
0.000002 
0.000002 
0.000003 
0.000003 
0.000003 
0.000003 
0.000004 
0.000004 
0.000004 
0.000005 
0.000005 
0.000005 
0.000006 
0.000006 
0.000007 
0.000007 
0.000008 
0.000009 
0.000009 
0.000010 
0.000011 
0.000012 
0.000013 
0.000014 
0.000015 
0.000016 
0.000017 
0.000019 
0.000020 
0.000022 
0.000023 
0.000025 
0.000027 
0.000029 
0.000031 
0.000033 
0.000036 
0.000039 
0.000041 
0.000044 
0.000048 
0.000051 
0.000055 
0.000058 
0.000062 
0.000067 
0.000071 
0.000076 
0.000082 
0.000087 
0.000093 
0.000099 
0.000106 
0.000113 
0.000120 
0.000128 
0.000136 
0.000145 
0.000154 
0.000164 
0.000175 
0.000186 
0.000197 
0.000209 
0.000222 
0.000236 
0.000250 
0.000265 
0.000281 
0.000298 
0.000315 
0.000334 
0.000353 
0.000373 
0.000395 
0.000417 
0.000441 
0.000465 
0.000491 
0.000518 
0.000546 
0.000576 
0.000607 
0.000639 
0.000673 
0.000708 
0.000745 
0.000784 
0.000824 
0.000866 
0.000909 
0.000954 
0.001002 
0.001051 
0.001102 
0.001155 
0.001210 
0.001267 
0.001327 
0.001388 
0.001452 
0.001519 
0.001587 
0.001658 
0.001732 
0.001808 
0.001887 
0.001968 
0.002052 
0.002138 
0.002228 
0.002320 
0.002415 
0.002513 
0.002614 
0.002718 
0.002825 
0.002934 
0.003047 
0.003163 
0.003282 
0.003404 
0.003530 
0.003658 
0.003790 
0.003925 
0.004063 
0.004204 
0.004348 
0.004496 
0.004647 
0.004801 
0.004958 
0.005118 
0.005282 
0.005448 
0.005618 
0.005790 
0.005966 
0.006145 
0.006326 
0.006511 
0.006698 
0.006888 
0.007081 
0.007277 
0.007475 
0.007676 
0.007879 
0.008084 
0.008292 
0.008502 
0.008714 
0.008929 
0.009145 
0.009363 
0.009582 
0.009804 
0.010026 
0.010251 
0.010476 
0.010703 
0.010931 
0.011159 
0.011389 
0.011619 
0.011850 
0.012081 
0.012312 
0.012544 
0.012776 
0.013007 
0.013238 
0.013469 
0.013699 
0.013929 
0.014157 
0.014385 
0.014611 
0.014836 
0.015060 
0.015282 
0.015503 
0.015721 
0.015937 
0.016152 
0.016364 
0.016573 
0.016780 
0.016984 
0.017185 
0.017384 
0.017579 
0.017770 
0.017959 
0.018143 
0.018324 
0.018501 
0.018675 
0.018844 
0.019009 
0.019169 
0.019325 
0.019477 
0.019624 
0.019766 
0.019904 
0.020036 
0.020163 
0.020286 
0.020403 
0.020514 
0.020621 
0.020721 
0.020817 
0.020906 
0.020990 
0.021069 
0.021141 
0.021208 
0.021268 
0.021323 
0.021372 
0.021414 
0.021451 
0.021482 
0.021506 
0.021525 
0.021537 
0.021543 
0.000000 
0.000000 
0.000000 
0.000000 
0.000000 
0.000000 
0.000000 
0.000000 
0.000000 
0.000000 
0.000000 
0.000000 
0.000000 
0.000000 
0.000000 
0.000000 
0.000000 
0.000000 
0.000000 
0.000000 
0.000000 
0.000000 
0.000000 
0.000000 
0.000000 
0.000000 