# vtk DataFile Version 3.0
results.vtk
ASCII
DATASET RECTILINEAR_GRID
DIMENSIONS 301 301 1
X_COORDINATES 301 double
0.000000 0.003333 0.006667 0.010000 0.013333 0.016667 0.020000 0.023333 0.026667 0.030000 0.033333 0.036667 0.040000 0.043333 0.046667 0.050000 0.053333 0.056667 0.060000 0.063333 0.066667 0.070000 0.073333 0.076667 0.080000 0.083333 0.086667 0.090000 0.093333 0.096667 0.100000 0.103333 0.106667 0.110000 0.113333 0.116667 0.120000 0.123333 0.126667 0.130000 0.133333 0.136667 0.140000 0.143333 0.146667 0.150000 0.153333 0.156667 0.160000 0.163333 0.166667 0.170000 0.173333 0.176667 0.180000 0.183333 0.186667 0.190000 0.193333 0.196667 0.200000 0.203333 0.206667 0.210000 0.213333 0.216667 0.220000 0.223333 0.226667 0.230000 0.233333 0.236667 0.240000 0.243333 0.246667 0.250000 0.253333 0.256667 0.260000 0.263333 0.266667 0.270000 0.273333 0.276667 0.280000 0.283333 0.286667 0.290000 0.293333 0.296667 0.300000 0.303333 0.306667 0.310000 0.313333 0.316667 0.320000 0.323333 0.326667 0.330000 0.333333 0.336667 0.340000 0.343333 0.346667 0.350000 0.353333 0.356667 0.360000 0.363333 0.366667 0.370000 0.373333 0.376667 0.380000 0.383333 0.386667 0.390000 0.393333 0.396667 0.400000 0.403333 0.406667 0.410000 0.413333 0.416667 0.420000 0.423333 0.426667 0.430000 0.433333 0.436667 0.440000 0.443333 0.446667 0.450000 0.453333 0.456667 0.460000 0.463333 0.466667 0.470000 0.473333 0.476667 0.480000 0.483333 0.486667 0.490000 0.493333 0.496667 0.500000 0.503333 0.506667 0.510000 0.513333 0.516667 0.520000 0.523333 0.526667 0.530000 0.533333 0.536667 0.540000 0.543333 0.546667 0.550000 0.553333 0.556667 0.560000 0.563333 0.566667 0.570000 0.573333 0.576667 0.580000 0.583333 0.586667 0.590000 0.593333 0.596667 0.600000 0.603333 0.606667 0.610000 0.613333 0.616667 0.620000 0.623333 0.626667 0.630000 0.633333 0.636667 0.640000 0.643333 0.646667 0.650000 0.653333 0.656667 0.660000 0.663333 0.666667 0.670000 0.673333 0.676667 0.680000 0.683333 0.686667 0.690000 0.693333 0.696667 0.700000 0.703333 0.706667 0.710000 0.713333 0.716667 0.720000 0.723333 0.726667 0.730000 0.733333 0.736667 0.740000 0.743333 0.746667 0.750000 0.753333 0.756667 0.760000 0.763333 0.766667 0.770000 0.773333 0.776667 0.780000 0.783333 0.786667 0.790000 0.793333 0.796667 0.800000 0.803333 0.806667 0.810000 0.813333 0.816667 0.820000 0.823333 0.826667 0.830000 0.833333 0.836667 0.840000 0.843333 0.846667 0.850000 0.853333 0.856667 0.860000 0.863333 0.866667 0.870000 0.873333 0.876667 0.880000 0.883333 0.886667 0.890000 0.893333 0.896667 0.900000 0.903333 0.906667 0.910000 0.913333 0.916667 0.920000 0.923333 0.926667 0.930000 0.933333 0.936667 0.940000 0.943333 0.946667 0.950000 0.953333 0.956667 0.960000 0.963333 0.966667 0.970000 0.973333 0.976667 0.980000 0.983333 0.986667 0.990000 0.993333 0.996667 1.000000 
Y_COORDINATES 301 double
0.000000 0.003333 0.006667 0.010000 0.013333 0.016667 0.020000 0.023333 0.026667 0.030000 0.033333 0.036667 0.040000 0.043333 0.046667 0.050000 0.053333 0.056667 0.060000 0.063333 0.066667 0.070000 0.073333 0.076667 0.080000 0.083333 0.086667 0.090000 0.093333 0.096667 0.100000 0.103333 0.106667 0.110000 0.113333 0.116667 0.120000 0.123333 0.126667 0.130000 0.133333 0.136667 0.140000 0.143333 0.146667 0.150000 0.153333 0.156667 0.160000 0.163333 0.166667 0.170000 0.173333 0.176667 0.180000 0.183333 0.186667 0.190000 0.193333 0.196667 0.200000 0.203333 0.206667 0.210000 0.213333 0.216667 0.220000 0.223333 0.226667 0.230000 0.233333 0.236667 0.240000 0.243333 0.246667 0.250000 0.253333 0.256667 0.260000 0.263333 0.266667 0.270000 0.273333 0.276667 0.280000 0.283333 0.286667 0.290000 0.293333 0.296667 0.300000 0.303333 0.306667 0.310000 0.313333 0.316667 0.320000 0.323333 0.326667 0.330000 0.333333 0.336667 0.340000 0.343333 0.346667 0.350000 0.353333 0.356667 0.360000 0.363333 0.366667 0.370000 0.373333 0.376667 0.380000 0.383333 0.386667 0.390000 0.393333 0.396667 0.400000 0.403333 0.406667 0.410000 0.413333 0.416667 0.420000 0.423333 0.426667 0.430000 0.433333 0.436667 0.440000 0.443333 0.446667 0.450000 0.453333 0.456667 0.460000 0.463333 0.466667 0.470000 0.473333 0.476667 0.480000 0.483333 0.486667 0.490000 0.493333 0.496667 0.500000 0.503333 0.506667 0.510000 0.513333 0.516667 0.520000 0.523333 0.526667 0.530000 0.533333 0.536667 0.540000 0.543333 0.546667 0.550000 0.553333 0.556667 0.560000 0.563333 0.566667 0.570000 0.573333 0.576667 0.580000 0.583333 0.586667 0.590000 0.593333 0.596667 0.600000 0.603333 0.606667 0.610000 0.613333 0.616667 0.620000 0.623333 0.626667 0.630000 0.633333 0.636667 0.640000 0.643333 0.646667 0.650000 0.653333 0.656667 0.660000 0.663333 0.666667 0.670000 0.673333 0.676667 0.680000 0.683333 0.686667 0.690000 0.693333 0.696667 0.700000 0.703333 0.706667 0.710000 0.713333 0.716667 0.720000 0.723333 0.726667 0.730000 0.733333 0.736667 0.740000 0.743333 0.746667 0.750000 0.753333 0.756667 0.760000 0.763333 0.766667 0.770000 0.773333 0.776667 0.780000 0.783333 0.786667 0.790000 0.793333 0.796667 0.800000 0.803333 0.806667 0.810000 0.813333 0.816667 0.820000 0.823333 0.826667 0.830000 0.833333 0.836667 0.840000 0.843333 0.846667 0.850000 0.853333 0.856667 0.860000 0.863333 0.866667 0.870000 0.873333 0.876667 0.880000 0.883333 0.886667 0.890000 0.893333 0.896667 0.900000 0.903333 0.906667 0.910000 0.913333 0.916667 0.920000 0.923333 0.926667 0.930000 0.933333 0.936667 0.940000 0.943333 0.946667 0.950000 0.953333 0.956667 0.960000 0.963333 0.966667 0.970000 0.973333 0.976667 0.980000 0.983333 0.986667 0.990000 0.993333 0.996667 1.000000 
Z_COORDINATES 1 double
0
POINT_DATA 90601 
FIELD FieldData 1 
Concentração 1 90601 double 
0.000000 
0.000000 
0.000000 
0.000000 
0.000000 
0.000000 
0.000000 
0.000000 
0.000000 
0.000000 
0.000000 
0.000000 
0.000000 
0.000000 
0.000000 
0.000000 
0.000000 
0.000000 
0.000000 
0.000000 
0.000000 
0.000000 
0.000000 
0.000000 
0.000000 
0.000000 
0.000000 
0.000000 
0.000000 
0.000000 
0.000000 
0.000000 
0.000000 
0.000000 
0.000000 
0.000000 
0.000000 
0.000000 
0.000000 
0.000000 
0.000000 
0.000000 
0.000000 
0.000000 
0.000000 
0.000000 
0.000000 
0.000000 
0.000000 
0.000000 
0.000000 
0.000000 
0.000000 
0.000000 
0.000000 
0.000000 
0.000000 
0.000000 
0.000000 
0.000000 
0.000000 
0.000000 
0.000000 
0.000000 
0.000000 
0.000000 
0.000000 
0.000000 
0.000000 
0.000000 
0.000000 
0.000000 
0.000000 
0.000000 
0.000000 
0.000000 
0.000000 
0.000000 
0.000000 
0.000000 
0.000000 
0.000000 
0.000000 
0.000000 
0.000000 
0.000000 
0.000000 
0.000000 
0.000000 
0.000000 
0.000000 
0.000000 
0.000000 
0.000000 
0.000000 
0.000000 
0.000000 
0.000000 
0.000000 
0.000000 
0.000000 
0.000000 
0.000000 
0.000000 
0.000000 
0.000000 
0.000000 
0.000000 
0.000000 
0.000000 
0.000000 
0.000000 
0.000000 
0.000000 
0.000000 
0.000000 
0.000000 
0.000001 
0.000001 
0.000001 
0.000001 
0.000001 
0.000001 
0.000001 
0.000001 
0.000001 
0.000001 
0.000001 
0.000001 
0.000001 
0.000001 
0.000001 
0.000001 
0.000002 
0.000002 
0.000002 
0.000002 
0.000002 
0.000002 
0.000002 
0.000002 
0.000003 
0.000003 
0.000003 
0.000003 
0.000003 
0.000004 
0.000004 
0.000004 
0.000004 
0.000005 
0.000005 
0.000005 
0.000005 
0.000006 
0.000006 
0.000006 
0.000007 
0.000007 
0.000007 
0.000008 
0.000008 
0.000009 
0.000009 
0.000010 
0.000010 
0.000011 
0.000011 
0.000012 
0.000013 
0.000013 
0.000014 
0.000015 
0.000015 
0.000016 
0.000017 
0.000018 
0.000019 
0.000020 
0.000021 
0.000022 
0.000023 
0.000024 
0.000025 
0.000026 
0.000027 
0.000028 
0.000030 
0.000031 
0.000032 
0.000034 
0.000035 
0.000037 
0.000038 
0.000040 
0.000041 
0.000043 
0.000045 
0.000046 
0.000048 
0.000050 
0.000052 
0.000054 
0.000056 
0.000058 
0.000060 
0.000063 
0.000065 
0.000067 
0.000070 
0.000072 
0.000074 
0.000077 
0.000080 
0.000082 
0.000085 
0.000088 
0.000091 
0.000093 
0.000096 
0.000099 
0.000102 
0.000105 
0.000108 
0.000112 
0.000115 
0.000118 
0.000121 
0.000125 
0.000128 
0.000132 
0.000135 
0.000139 
0.000142 
0.000146 
0.000149 
0.000153 
0.000157 
0.000160 
0.000164 
0.000168 
0.000172 
0.000175 
0.000179 
0.000183 
0.000187 
0.000191 
0.000195 
0.000198 
0.000202 
0.000206 
0.000210 
0.000214 
0.000217 
0.000221 
0.000225 
0.000229 
0.000233 
0.000236 
0.000240 
0.000243 
0.000247 
0.000251 
0.000254 
0.000258 
0.000261 
0.000264 
0.000268 
0.000271 
0.000274 
0.000277 
0.000280 
0.000283 
0.000286 
0.000289 
0.000292 
0.000294 
0.000297 
0.000300 
0.000302 
0.000304 
0.000306 
0.000309 
0.000311 
0.000313 
0.000314 
0.000316 
0.000318 
0.000319 
0.000321 
0.000322 
0.000323 
0.000324 
0.000325 
0.000326 
0.000327 
0.000327 
0.000328 
0.000328 
0.000328 
0.000328 
0.000000 
0.000000 
0.000000 
0.000000 
0.000000 
0.000000 
0.000000 
0.000000 
0.000000 
0.000000 
0.000000 
0.000000 
0.000000 
0.000000 
0.000000 
0.000000 
0.000000 
0.000000 
0.000000 
0.000000 
0.000000 
0.000000 
0.000000 
0.000000 
0.000000 
0.000000 
0.000000 
0.000000 
0.000000 
0.000000 
0.000000 
0.000000 
0.000000 
0.000000 
0.000000 
0.000000 
0.000000 
0.000000 
0.000000 
0.000000 
0.000000 
0.000000 
0.000000 
0.000000 
0.000000 
0.000000 
0.000000 
0.000000 
0.000000 
0.000000 
0.000000 
0.000000 
0.000000 
0.000000 
0.000000 
0.000000 
0.000000 
0.000000 
0.000000 
0.000000 
0.000000 
0.000000 
0.000000 
0.000000 
0.000000 
0.000000 
0.000000 
0.000000 
0.000000 
0.000000 
0.000000 
0.000000 
0.000000 
0.000000 
0.000000 
0.000000 
0.000000 
0.000000 
0.000000 
0.000000 
0.000000 
0.000000 
0.000000 
0.000000 
0.000000 
0.000000 
0.000000 
0.000000 
0.000000 
0.000000 
0.000000 
0.000000 
0.000000 
0.000000 
0.000000 
0.000000 
0.000000 
0.000000 
0.000000 
0.000000 
0.000000 
0.000000 
0.000000 
0.000000 
0.000000 
0.000000 
0.000000 
0.000001 
0.000001 
0.000001 
0.000001 
0.000001 
0.000001 
0.000001 
0.000001 
0.000001 
0.000001 
0.000001 
0.000001 
0.000001 
0.000001 
0.000001 
0.000002 
0.000002 
0.000002 
0.000002 
0.000002 
0.000002 
0.000002 
0.000002 
0.000003 
0.000003 
0.000003 
0.000003 
0.000003 
0.000004 
0.000004 
0.000004 
0.000004 
0.000005 
0.000005 
0.000005 
0.000006 
0.000006 
0.000006 
0.000007 
0.000007 
0.000008 
0.000008 
0.000009 
0.000009 
0.000010 
0.000010 
0.000011 
0.000011 
0.000012 
0.000013 
0.000014 
0.000014 
0.000015 
0.000016 
0.000017 
0.000018 
0.000019 
0.000020 
0.000021 
0.000022 
0.000023 
0.000024 
0.000026 
0.000027 
0.000028 
0.000030 
0.000031 
0.000033 
0.000034 
0.000036 
0.000038 
0.000040 
0.000042 
0.000043 
0.000046 
0.000048 
0.000050 
0.000052 
0.000054 
0.000057 
0.000059 
0.000062 
0.000065 
0.000068 
0.000070 
0.000073 
0.000077 
0.000080 
0.000083 
0.000086 
0.000090 
0.000093 
0.000097 
0.000101 
0.000105 
0.000109 
0.000113 
0.000117 
0.000122 
0.000126 
0.000131 
0.000135 
0.000140 
0.000145 
0.000150 
0.000155 
0.000160 
0.000165 
0.000171 
0.000176 
0.000182 
0.000188 
0.000194 
0.000200 
0.000206 
0.000212 
0.000218 
0.000225 
0.000231 
0.000238 
0.000244 
0.000251 
0.000258 
0.000265 
0.000272 
0.000279 
0.000286 
0.000293 
0.000300 
0.000308 
0.000315 
0.000323 
0.000330 
0.000338 
0.000345 
0.000353 
0.000360 
0.000368 
0.000376 
0.000384 
0.000391 
0.000399 
0.000407 
0.000414 
0.000422 
0.000430 
0.000437 
0.000445 
0.000453 
0.000460 
0.000468 
0.000475 
0.000482 
0.000490 
0.000497 
0.000504 
0.000511 
0.000518 
0.000525 
0.000532 
0.000538 
0.000545 
0.000551 
0.000558 
0.000564 
0.000570 
0.000576 
0.000581 
0.000587 
0.000592 
0.000597 
0.000602 
0.000607 
0.000612 
0.000616 
0.000621 
0.000625 
0.000628 
0.000632 
0.000636 
0.000639 
0.000642 
0.000645 
0.000647 
0.000650 
0.000652 
0.000654 
0.000655 
0.000657 
0.000658 
0.000659 
0.000660 
0.000660 
0.000660 
0.000000 
0.000000 
0.000000 
0.000000 
0.000000 
0.000000 
0.000000 
0.000000 
0.000000 
0.000000 
0.000000 
0.000000 
0.000000 
0.000000 
0.000000 
0.000000 
0.000000 
0.000000 
0.000000 
0.000000 
0.000000 
0.000000 
0.000000 
0.000000 
0.000000 
0.000000 
0.000000 
0.000000 
0.000000 
0.000000 
0.000000 
0.000000 
0.000000 
0.000000 
0.000000 
0.000000 
0.000000 
0.000000 
0.000000 
0.000000 
0.000000 
0.000000 
0.000000 
0.000000 
0.000000 
0.000000 
0.000000 
0.000000 
0.000000 
0.000000 
0.000000 
0.000000 
0.000000 
0.000000 
0.000000 
0.000000 
0.000000 
0.000000 
0.000000 
0.000000 
0.000000 
0.000000 
0.000000 
0.000000 
0.000000 
0.000000 
0.000000 
0.000000 
0.000000 
0.000000 
0.000000 
0.000000 
0.000000 
0.000000 
0.000000 
0.000000 
0.000000 
0.000000 
0.000000 
0.000000 
0.000000 
0.000000 
0.000000 
0.000000 
0.000000 
0.000000 
0.000000 
0.000000 
0.000000 
0.000000 
0.000000 
0.000000 
0.000000 
0.000000 
0.000000 
0.000000 
0.000000 
0.000000 
0.000000 
0.000000 
0.000000 
0.000000 
0.000001 
0.000001 
0.000001 
0.000001 
0.000001 
0.000001 
0.000001 
0.000001 
0.000001 
0.000001 
0.000001 
0.000001 
0.000001 
0.000001 
0.000001 
0.000002 
0.000002 
0.000002 
0.000002 
0.000002 
0.000002 
0.000002 
0.000003 
0.000003 
0.000003 
0.000003 
0.000003 
0.000004 
0.000004 
0.000004 
0.000005 
0.000005 
0.000005 
0.000005 
0.000006 
0.000006 
0.000007 
0.000007 
0.000008 
0.000008 
0.000009 
0.000009 
0.000010 
0.000010 
0.000011 
0.000012 
0.000012 
0.000013 
0.000014 
0.000015 
0.000015 
0.000016 
0.000017 
0.000018 
0.000019 
0.000020 
0.000022 
0.000023 
0.000024 
0.000025 
0.000027 
0.000028 
0.000030 
0.000032 
0.000033 
0.000035 
0.000037 
0.000039 
0.000041 
0.000043 
0.000045 
0.000047 
0.000050 
0.000052 
0.000055 
0.000057 
0.000060 
0.000063 
0.000066 
0.000069 
0.000072 
0.000076 
0.000079 
0.000083 
0.000086 
0.000090 
0.000094 
0.000098 
0.000102 
0.000107 
0.000111 
0.000116 
0.000121 
0.000126 
0.000131 
0.000136 
0.000142 
0.000147 
0.000153 
0.000159 
0.000165 
0.000171 
0.000178 
0.000184 
0.000191 
0.000198 
0.000205 
0.000212 
0.000219 
0.000227 
0.000235 
0.000243 
0.000251 
0.000259 
0.000267 
0.000276 
0.000285 
0.000293 
0.000303 
0.000312 
0.000321 
0.000331 
0.000340 
0.000350 
0.000360 
0.000370 
0.000380 
0.000391 
0.000401 
0.000412 
0.000422 
0.000433 
0.000444 
0.000455 
0.000466 
0.000477 
0.000489 
0.000500 
0.000511 
0.000523 
0.000534 
0.000546 
0.000558 
0.000569 
0.000581 
0.000592 
0.000604 
0.000616 
0.000628 
0.000639 
0.000651 
0.000662 
0.000674 
0.000685 
0.000697 
0.000708 
0.000719 
0.000730 
0.000741 
0.000752 
0.000763 
0.000774 
0.000784 
0.000795 
0.000805 
0.000815 
0.000825 
0.000835 
0.000844 
0.000853 
0.000862 
0.000871 
0.000880 
0.000888 
0.000896 
0.000904 
0.000912 
0.000919 
0.000926 
0.000933 
0.000939 
0.000946 
0.000951 
0.000957 
0.000962 
0.000967 
0.000972 
0.000976 
0.000980 
0.000983 
0.000986 
0.000989 
0.000992 
0.000994 
0.000996 
0.000997 
0.000998 
0.000999 
0.000999 
0.000000 
0.000000 
0.000000 
0.000000 
0.000000 
0.000000 
0.000000 
0.000000 
0.000000 
0.000000 
0.000000 
0.000000 
0.000000 
0.000000 
0.000000 
0.000000 
0.000000 
0.000000 
0.000000 
0.000000 
0.000000 
0.000000 
0.000000 
0.000000 
0.000000 
0.000000 
0.000000 
0.000000 
0.000000 
0.000000 
0.000000 
0.000000 
0.000000 
0.000000 
0.000000 
0.000000 
0.000000 
0.000000 
0.000000 
0.000000 
0.000000 
0.000000 
0.000000 
0.000000 
0.000000 
0.000000 
0.000000 
0.000000 
0.000000 
0.000000 
0.000000 
0.000000 
0.000000 
0.000000 
0.000000 
0.000000 
0.000000 
0.000000 
0.000000 
0.000000 
0.000000 
0.000000 
0.000000 
0.000000 
0.000000 
0.000000 
0.000000 
0.000000 
0.000000 
0.000000 
0.000000 
0.000000 
0.000000 
0.000000 
0.000000 
0.000000 
0.000000 
0.000000 
0.000000 
0.000000 
0.000000 
0.000000 
0.000000 
0.000000 
0.000000 
0.000000 
0.000000 
0.000000 
0.000000 
0.000000 
0.000000 
0.000000 
0.000000 
0.000000 
0.000000 
0.000000 
0.000000 
0.000000 
0.000001 
0.000001 
0.000001 
0.000001 
0.000001 
0.000001 
0.000001 
0.000001 
0.000001 
0.000001 
0.000001 
0.000001 
0.000001 
0.000001 
0.000002 
0.000002 
0.000002 
0.000002 
0.000002 
0.000002 
0.000002 
0.000003 
0.000003 
0.000003 
0.000003 
0.000003 
0.000004 
0.000004 
0.000004 
0.000004 
0.000005 
0.000005 
0.000005 
0.000006 
0.000006 
0.000007 
0.000007 
0.000007 
0.000008 
0.000008 
0.000009 
0.000010 
0.000010 
0.000011 
0.000012 
0.000012 
0.000013 
0.000014 
0.000015 
0.000016 
0.000017 
0.000018 
0.000019 
0.000020 
0.000021 
0.000022 
0.000023 
0.000025 
0.000026 
0.000028 
0.000029 
0.000031 
0.000033 
0.000034 
0.000036 
0.000038 
0.000040 
0.000043 
0.000045 
0.000047 
0.000050 
0.000052 
0.000055 
0.000058 
0.000061 
0.000064 
0.000067 
0.000070 
0.000074 
0.000077 
0.000081 
0.000085 
0.000089 
0.000093 
0.000098 
0.000102 
0.000107 
0.000112 
0.000117 
0.000122 
0.000127 
0.000133 
0.000139 
0.000144 
0.000151 
0.000157 
0.000163 
0.000170 
0.000177 
0.000184 
0.000192 
0.000199 
0.000207 
0.000215 
0.000223 
0.000231 
0.000240 
0.000249 
0.000258 
0.000267 
0.000277 
0.000287 
0.000297 
0.000307 
0.000317 
0.000328 
0.000339 
0.000350 
0.000361 
0.000373 
0.000385 
0.000397 
0.000409 
0.000421 
0.000434 
0.000447 
0.000460 
0.000473 
0.000487 
0.000500 
0.000514 
0.000528 
0.000542 
0.000556 
0.000571 
0.000585 
0.000600 
0.000615 
0.000630 
0.000645 
0.000660 
0.000676 
0.000691 
0.000706 
0.000722 
0.000738 
0.000753 
0.000769 
0.000785 
0.000800 
0.000816 
0.000832 
0.000848 
0.000863 
0.000879 
0.000895 
0.000910 
0.000926 
0.000941 
0.000956 
0.000972 
0.000987 
0.001002 
0.001016 
0.001031 
0.001045 
0.001060 
0.001074 
0.001087 
0.001101 
0.001114 
0.001127 
0.001140 
0.001153 
0.001165 
0.001177 
0.001188 
0.001200 
0.001211 
0.001221 
0.001231 
0.001241 
0.001251 
0.001260 
0.001269 
0.001277 
0.001285 
0.001292 
0.001299 
0.001306 
0.001312 
0.001318 
0.001323 
0.001328 
0.001332 
0.001336 
0.001339 
0.001342 
0.001345 
0.001347 
0.001348 
0.001349 
0.001350 
0.000000 
0.000000 
0.000000 
0.000000 
0.000000 
0.000000 
0.000000 
0.000000 
0.000000 
0.000000 
0.000000 
0.000000 
0.000000 
0.000000 
0.000000 
0.000000 
0.000000 
0.000000 
0.000000 
0.000000 
0.000000 
0.000000 
0.000000 
0.000000 
0.000000 
0.000000 
0.000000 
0.000000 
0.000000 
0.000000 
0.000000 
0.000000 
0.000000 
0.000000 
0.000000 
0.000000 
0.000000 
0.000000 
0.000000 
0.000000 
0.000000 
0.000000 
0.000000 
0.000000 
0.000000 
0.000000 
0.000000 
0.000000 
0.000000 
0.000000 
0.000000 
0.000000 
0.000000 
0.000000 
0.000000 
0.000000 
0.000000 
0.000000 
0.000000 
0.000000 
0.000000 
0.000000 
0.000000 
0.000000 
0.000000 
0.000000 
0.000000 
0.000000 
0.000000 
0.000000 
0.000000 
0.000000 
0.000000 
0.000000 
0.000000 
0.000000 
0.000000 
0.000000 
0.000000 
0.000000 
0.000000 
0.000000 
0.000000 
0.000000 
0.000000 
0.000000 
0.000000 
0.000000 
0.000000 
0.000000 
0.000000 
0.000000 
0.000000 
0.000000 
0.000000 
0.000001 
0.000001 
0.000001 
0.000001 
0.000001 
0.000001 
0.000001 
0.000001 
0.000001 
0.000001 
0.000001 
0.000001 
0.000001 
0.000001 
0.000002 
0.000002 
0.000002 
0.000002 
0.000002 
0.000002 
0.000002 
0.000003 
0.000003 
0.000003 
0.000003 
0.000003 
0.000004 
0.000004 
0.000004 
0.000005 
0.000005 
0.000005 
0.000006 
0.000006 
0.000006 
0.000007 
0.000007 
0.000008 
0.000008 
0.000009 
0.000009 
0.000010 
0.000011 
0.000011 
0.000012 
0.000013 
0.000014 
0.000015 
0.000016 
0.000017 
0.000018 
0.000019 
0.000020 
0.000021 
0.000022 
0.000024 
0.000025 
0.000027 
0.000028 
0.000030 
0.000032 
0.000033 
0.000035 
0.000037 
0.000039 
0.000042 
0.000044 
0.000046 
0.000049 
0.000052 
0.000054 
0.000057 
0.000060 
0.000063 
0.000067 
0.000070 
0.000074 
0.000077 
0.000081 
0.000085 
0.000090 
0.000094 
0.000099 
0.000103 
0.000108 
0.000113 
0.000119 
0.000124 
0.000130 
0.000136 
0.000142 
0.000149 
0.000155 
0.000162 
0.000169 
0.000176 
0.000184 
0.000192 
0.000200 
0.000208 
0.000217 
0.000225 
0.000234 
0.000244 
0.000253 
0.000263 
0.000273 
0.000284 
0.000295 
0.000306 
0.000317 
0.000328 
0.000340 
0.000352 
0.000365 
0.000377 
0.000390 
0.000404 
0.000417 
0.000431 
0.000445 
0.000460 
0.000474 
0.000489 
0.000505 
0.000520 
0.000536 
0.000552 
0.000568 
0.000585 
0.000602 
0.000619 
0.000636 
0.000654 
0.000671 
0.000689 
0.000707 
0.000726 
0.000744 
0.000763 
0.000782 
0.000801 
0.000820 
0.000839 
0.000859 
0.000878 
0.000898 
0.000918 
0.000938 
0.000958 
0.000978 
0.000998 
0.001018 
0.001038 
0.001058 
0.001078 
0.001098 
0.001117 
0.001137 
0.001157 
0.001177 
0.001196 
0.001216 
0.001235 
0.001254 
0.001273 
0.001292 
0.001310 
0.001328 
0.001346 
0.001364 
0.001382 
0.001399 
0.001416 
0.001432 
0.001449 
0.001464 
0.001480 
0.001495 
0.001510 
0.001524 
0.001538 
0.001551 
0.001564 
0.001577 
0.001589 
0.001601 
0.001612 
0.001622 
0.001632 
0.001642 
0.001651 
0.001659 
0.001667 
0.001674 
0.001681 
0.001687 
0.001692 
0.001697 
0.001701 
0.001705 
0.001708 
0.001711 
0.001712 
0.001714 
0.001714 
0.000000 
0.000000 
0.000000 
0.000000 
0.000000 
0.000000 
0.000000 
0.000000 
0.000000 
0.000000 
0.000000 
0.000000 
0.000000 
0.000000 
0.000000 
0.000000 
0.000000 
0.000000 
0.000000 
0.000000 
0.000000 
0.000000 
0.000000 
0.000000 
0.000000 
0.000000 
0.000000 
0.000000 
0.000000 
0.000000 
0.000000 
0.000000 
0.000000 
0.000000 
0.000000 
0.000000 
0.000000 
0.000000 
0.000000 
0.000000 
0.000000 
0.000000 
0.000000 
0.000000 
0.000000 
0.000000 
0.000000 
0.000000 
0.000000 
0.000000 
0.000000 
0.000000 
0.000000 
0.000000 
0.000000 
0.000000 
0.000000 
0.000000 
0.000000 
0.000000 
0.000000 
0.000000 
0.000000 
0.000000 
0.000000 
0.000000 
0.000000 
0.000000 
0.000000 
0.000000 
0.000000 
0.000000 
0.000000 
0.000000 
0.000000 
0.000000 
0.000000 
0.000000 
0.000000 
0.000000 
0.000000 
0.000000 
0.000000 
0.000000 
0.000000 
0.000000 
0.000000 
0.000000 
0.000000 
0.000000 
0.000000 
0.000000 
0.000000 
0.000001 
0.000001 
0.000001 
0.000001 
0.000001 
0.000001 
0.000001 
0.000001 
0.000001 
0.000001 
0.000001 
0.000001 
0.000001 
0.000002 
0.000002 
0.000002 
0.000002 
0.000002 
0.000002 
0.000002 
0.000003 
0.000003 
0.000003 
0.000003 
0.000003 
0.000004 
0.000004 
0.000004 
0.000005 
0.000005 
0.000005 
0.000006 
0.000006 
0.000006 
0.000007 
0.000007 
0.000008 
0.000008 
0.000009 
0.000010 
0.000010 
0.000011 
0.000012 
0.000012 
0.000013 
0.000014 
0.000015 
0.000016 
0.000017 
0.000018 
0.000019 
0.000020 
0.000022 
0.000023 
0.000024 
0.000026 
0.000027 
0.000029 
0.000031 
0.000033 
0.000035 
0.000037 
0.000039 
0.000041 
0.000043 
0.000046 
0.000048 
0.000051 
0.000054 
0.000057 
0.000060 
0.000063 
0.000067 
0.000070 
0.000074 
0.000078 
0.000082 
0.000086 
0.000090 
0.000095 
0.000100 
0.000105 
0.000110 
0.000115 
0.000121 
0.000127 
0.000133 
0.000139 
0.000146 
0.000153 
0.000160 
0.000167 
0.000174 
0.000182 
0.000190 
0.000199 
0.000207 
0.000216 
0.000226 
0.000235 
0.000245 
0.000255 
0.000266 
0.000276 
0.000288 
0.000299 
0.000311 
0.000323 
0.000335 
0.000348 
0.000361 
0.000375 
0.000388 
0.000403 
0.000417 
0.000432 
0.000447 
0.000463 
0.000479 
0.000495 
0.000512 
0.000529 
0.000546 
0.000564 
0.000582 
0.000600 
0.000619 
0.000638 
0.000657 
0.000677 
0.000697 
0.000717 
0.000737 
0.000758 
0.000779 
0.000801 
0.000823 
0.000845 
0.000867 
0.000889 
0.000912 
0.000935 
0.000958 
0.000981 
0.001005 
0.001028 
0.001052 
0.001076 
0.001100 
0.001124 
0.001149 
0.001173 
0.001197 
0.001222 
0.001246 
0.001271 
0.001295 
0.001320 
0.001344 
0.001368 
0.001393 
0.001417 
0.001441 
0.001465 
0.001488 
0.001512 
0.001535 
0.001558 
0.001581 
0.001604 
0.001626 
0.001648 
0.001670 
0.001691 
0.001712 
0.001733 
0.001753 
0.001773 
0.001792 
0.001811 
0.001830 
0.001848 
0.001865 
0.001882 
0.001899 
0.001915 
0.001930 
0.001945 
0.001959 
0.001972 
0.001985 
0.001997 
0.002009 
0.002020 
0.002030 
0.002040 
0.002048 
0.002057 
0.002064 
0.002071 
0.002077 
0.002082 
0.002086 
0.002090 
0.002093 
0.002095 
0.002097 
0.002098 
0.000000 
0.000000 
0.000000 
0.000000 
0.000000 
0.000000 
0.000000 
0.000000 
0.000000 
0.000000 
0.000000 
0.000000 
0.000000 
0.000000 
0.000000 
0.000000 
0.000000 
0.000000 
0.000000 
0.000000 
0.000000 
0.000000 
0.000000 
0.000000 
0.000000 
0.000000 
0.000000 
0.000000 
0.000000 
0.000000 
0.000000 
0.000000 
0.000000 
0.000000 
0.000000 
0.000000 
0.000000 
0.000000 
0.000000 
0.000000 
0.000000 
0.000000 
0.000000 
0.000000 
0.000000 
0.000000 
0.000000 
0.000000 
0.000000 
0.000000 
0.000000 
0.000000 
0.000000 
0.000000 
0.000000 
0.000000 
0.000000 
0.000000 
0.000000 
0.000000 
0.000000 
0.000000 
0.000000 
0.000000 
0.000000 
0.000000 
0.000000 
0.000000 
0.000000 
0.000000 
0.000000 
0.000000 
0.000000 
0.000000 
0.000000 
0.000000 
0.000000 
0.000000 
0.000000 
0.000000 
0.000000 
0.000000 
0.000000 
0.000000 
0.000000 
0.000000 
0.000000 
0.000000 
0.000000 
0.000000 
0.000001 
0.000001 
0.000001 
0.000001 
0.000001 
0.000001 
0.000001 
0.000001 
0.000001 
0.000001 
0.000001 
0.000001 
0.000001 
0.000001 
0.000002 
0.000002 
0.000002 
0.000002 
0.000002 
0.000002 
0.000002 
0.000003 
0.000003 
0.000003 
0.000003 
0.000004 
0.000004 
0.000004 
0.000004 
0.000005 
0.000005 
0.000005 
0.000006 
0.000006 
0.000007 
0.000007 
0.000008 
0.000008 
0.000009 
0.000009 
0.000010 
0.000011 
0.000011 
0.000012 
0.000013 
0.000014 
0.000015 
0.000016 
0.000017 
0.000018 
0.000019 
0.000020 
0.000022 
0.000023 
0.000024 
0.000026 
0.000028 
0.000029 
0.000031 
0.000033 
0.000035 
0.000037 
0.000039 
0.000041 
0.000044 
0.000046 
0.000049 
0.000052 
0.000055 
0.000058 
0.000061 
0.000065 
0.000068 
0.000072 
0.000076 
0.000080 
0.000084 
0.000089 
0.000093 
0.000098 
0.000103 
0.000108 
0.000114 
0.000120 
0.000126 
0.000132 
0.000138 
0.000145 
0.000152 
0.000159 
0.000167 
0.000175 
0.000183 
0.000191 
0.000200 
0.000209 
0.000218 
0.000228 
0.000238 
0.000248 
0.000259 
0.000270 
0.000281 
0.000293 
0.000305 
0.000318 
0.000331 
0.000344 
0.000358 
0.000372 
0.000386 
0.000401 
0.000417 
0.000432 
0.000448 
0.000465 
0.000482 
0.000499 
0.000517 
0.000535 
0.000554 
0.000573 
0.000592 
0.000612 
0.000632 
0.000653 
0.000674 
0.000696 
0.000717 
0.000740 
0.000763 
0.000786 
0.000809 
0.000833 
0.000857 
0.000882 
0.000907 
0.000932 
0.000957 
0.000983 
0.001010 
0.001036 
0.001063 
0.001090 
0.001117 
0.001145 
0.001173 
0.001201 
0.001229 
0.001257 
0.001286 
0.001315 
0.001343 
0.001372 
0.001401 
0.001431 
0.001460 
0.001489 
0.001518 
0.001547 
0.001576 
0.001605 
0.001634 
0.001663 
0.001692 
0.001721 
0.001749 
0.001778 
0.001806 
0.001833 
0.001861 
0.001888 
0.001915 
0.001942 
0.001968 
0.001994 
0.002019 
0.002045 
0.002069 
0.002093 
0.002117 
0.002140 
0.002163 
0.002185 
0.002206 
0.002227 
0.002247 
0.002267 
0.002285 
0.002304 
0.002321 
0.002338 
0.002354 
0.002369 
0.002384 
0.002398 
0.002411 
0.002423 
0.002434 
0.002445 
0.002455 
0.002463 
0.002471 
0.002478 
0.002485 
0.002490 
0.002495 
0.002498 
0.002501 
0.002503 
0.002504 
0.000000 
0.000000 
0.000000 
0.000000 
0.000000 
0.000000 
0.000000 
0.000000 
0.000000 
0.000000 
0.000000 
0.000000 
0.000000 
0.000000 
0.000000 
0.000000 
0.000000 
0.000000 
0.000000 
0.000000 
0.000000 
0.000000 
0.000000 
0.000000 
0.000000 
0.000000 
0.000000 
0.000000 
0.000000 
0.000000 
0.000000 
0.000000 
0.000000 
0.000000 
0.000000 
0.000000 
0.000000 
0.000000 
0.000000 
0.000000 
0.000000 
0.000000 
0.000000 
0.000000 
0.000000 
0.000000 
0.000000 
0.000000 
0.000000 
0.000000 
0.000000 
0.000000 
0.000000 
0.000000 
0.000000 
0.000000 
0.000000 
0.000000 
0.000000 
0.000000 
0.000000 
0.000000 
0.000000 
0.000000 
0.000000 
0.000000 
0.000000 
0.000000 
0.000000 
0.000000 
0.000000 
0.000000 
0.000000 
0.000000 
0.000000 
0.000000 
0.000000 
0.000000 
0.000000 
0.000000 
0.000000 
0.000000 
0.000000 
0.000000 
0.000000 
0.000000 
0.000000 
0.000000 
0.000001 
0.000001 
0.000001 
0.000001 
0.000001 
0.000001 
0.000001 
0.000001 
0.000001 
0.000001 
0.000001 
0.000001 
0.000001 
0.000001 
0.000002 
0.000002 
0.000002 
0.000002 
0.000002 
0.000002 
0.000002 
0.000003 
0.000003 
0.000003 
0.000003 
0.000004 
0.000004 
0.000004 
0.000004 
0.000005 
0.000005 
0.000006 
0.000006 
0.000006 
0.000007 
0.000007 
0.000008 
0.000008 
0.000009 
0.000010 
0.000010 
0.000011 
0.000012 
0.000013 
0.000013 
0.000014 
0.000015 
0.000016 
0.000017 
0.000019 
0.000020 
0.000021 
0.000022 
0.000024 
0.000025 
0.000027 
0.000029 
0.000031 
0.000032 
0.000034 
0.000037 
0.000039 
0.000041 
0.000044 
0.000046 
0.000049 
0.000052 
0.000055 
0.000058 
0.000061 
0.000065 
0.000068 
0.000072 
0.000076 
0.000080 
0.000085 
0.000089 
0.000094 
0.000099 
0.000104 
0.000110 
0.000115 
0.000121 
0.000128 
0.000134 
0.000141 
0.000148 
0.000155 
0.000163 
0.000171 
0.000179 
0.000187 
0.000196 
0.000205 
0.000215 
0.000225 
0.000235 
0.000246 
0.000257 
0.000268 
0.000280 
0.000292 
0.000305 
0.000318 
0.000331 
0.000345 
0.000359 
0.000374 
0.000389 
0.000405 
0.000421 
0.000437 
0.000454 
0.000472 
0.000490 
0.000508 
0.000527 
0.000547 
0.000567 
0.000587 
0.000608 
0.000629 
0.000651 
0.000673 
0.000696 
0.000720 
0.000743 
0.000768 
0.000792 
0.000818 
0.000843 
0.000870 
0.000896 
0.000923 
0.000951 
0.000979 
0.001007 
0.001036 
0.001065 
0.001095 
0.001125 
0.001156 
0.001186 
0.001217 
0.001249 
0.001281 
0.001313 
0.001345 
0.001378 
0.001410 
0.001444 
0.001477 
0.001510 
0.001544 
0.001578 
0.001612 
0.001646 
0.001680 
0.001714 
0.001748 
0.001782 
0.001817 
0.001851 
0.001885 
0.001919 
0.001953 
0.001986 
0.002020 
0.002053 
0.002086 
0.002119 
0.002152 
0.002184 
0.002216 
0.002248 
0.002279 
0.002309 
0.002340 
0.002370 
0.002399 
0.002428 
0.002456 
0.002484 
0.002511 
0.002537 
0.002563 
0.002588 
0.002612 
0.002636 
0.002659 
0.002681 
0.002702 
0.002723 
0.002742 
0.002761 
0.002779 
0.002796 
0.002812 
0.002828 
0.002842 
0.002855 
0.002867 
0.002879 
0.002889 
0.002898 
0.002907 
0.002914 
0.002920 
0.002926 
0.002930 
0.002933 
0.002935 
0.002936 
0.000000 
0.000000 
0.000000 
0.000000 
0.000000 
0.000000 
0.000000 
0.000000 
0.000000 
0.000000 
0.000000 
0.000000 
0.000000 
0.000000 
0.000000 
0.000000 
0.000000 
0.000000 
0.000000 
0.000000 
0.000000 
0.000000 
0.000000 
0.000000 
0.000000 
0.000000 