# vtk DataFile Version 3.0
results.vtk
ASCII
DATASET RECTILINEAR_GRID
DIMENSIONS 301 301 1
X_COORDINATES 301 double
0.000000 0.003333 0.006667 0.010000 0.013333 0.016667 0.020000 0.023333 0.026667 0.030000 0.033333 0.036667 0.040000 0.043333 0.046667 0.050000 0.053333 0.056667 0.060000 0.063333 0.066667 0.070000 0.073333 0.076667 0.080000 0.083333 0.086667 0.090000 0.093333 0.096667 0.100000 0.103333 0.106667 0.110000 0.113333 0.116667 0.120000 0.123333 0.126667 0.130000 0.133333 0.136667 0.140000 0.143333 0.146667 0.150000 0.153333 0.156667 0.160000 0.163333 0.166667 0.170000 0.173333 0.176667 0.180000 0.183333 0.186667 0.190000 0.193333 0.196667 0.200000 0.203333 0.206667 0.210000 0.213333 0.216667 0.220000 0.223333 0.226667 0.230000 0.233333 0.236667 0.240000 0.243333 0.246667 0.250000 0.253333 0.256667 0.260000 0.263333 0.266667 0.270000 0.273333 0.276667 0.280000 0.283333 0.286667 0.290000 0.293333 0.296667 0.300000 0.303333 0.306667 0.310000 0.313333 0.316667 0.320000 0.323333 0.326667 0.330000 0.333333 0.336667 0.340000 0.343333 0.346667 0.350000 0.353333 0.356667 0.360000 0.363333 0.366667 0.370000 0.373333 0.376667 0.380000 0.383333 0.386667 0.390000 0.393333 0.396667 0.400000 0.403333 0.406667 0.410000 0.413333 0.416667 0.420000 0.423333 0.426667 0.430000 0.433333 0.436667 0.440000 0.443333 0.446667 0.450000 0.453333 0.456667 0.460000 0.463333 0.466667 0.470000 0.473333 0.476667 0.480000 0.483333 0.486667 0.490000 0.493333 0.496667 0.500000 0.503333 0.506667 0.510000 0.513333 0.516667 0.520000 0.523333 0.526667 0.530000 0.533333 0.536667 0.540000 0.543333 0.546667 0.550000 0.553333 0.556667 0.560000 0.563333 0.566667 0.570000 0.573333 0.576667 0.580000 0.583333 0.586667 0.590000 0.593333 0.596667 0.600000 0.603333 0.606667 0.610000 0.613333 0.616667 0.620000 0.623333 0.626667 0.630000 0.633333 0.636667 0.640000 0.643333 0.646667 0.650000 0.653333 0.656667 0.660000 0.663333 0.666667 0.670000 0.673333 0.676667 0.680000 0.683333 0.686667 0.690000 0.693333 0.696667 0.700000 0.703333 0.706667 0.710000 0.713333 0.716667 0.720000 0.723333 0.726667 0.730000 0.733333 0.736667 0.740000 0.743333 0.746667 0.750000 0.753333 0.756667 0.760000 0.763333 0.766667 0.770000 0.773333 0.776667 0.780000 0.783333 0.786667 0.790000 0.793333 0.796667 0.800000 0.803333 0.806667 0.810000 0.813333 0.816667 0.820000 0.823333 0.826667 0.830000 0.833333 0.836667 0.840000 0.843333 0.846667 0.850000 0.853333 0.856667 0.860000 0.863333 0.866667 0.870000 0.873333 0.876667 0.880000 0.883333 0.886667 0.890000 0.893333 0.896667 0.900000 0.903333 0.906667 0.910000 0.913333 0.916667 0.920000 0.923333 0.926667 0.930000 0.933333 0.936667 0.940000 0.943333 0.946667 0.950000 0.953333 0.956667 0.960000 0.963333 0.966667 0.970000 0.973333 0.976667 0.980000 0.983333 0.986667 0.990000 0.993333 0.996667 1.000000 
Y_COORDINATES 301 double
0.000000 0.003333 0.006667 0.010000 0.013333 0.016667 0.020000 0.023333 0.026667 0.030000 0.033333 0.036667 0.040000 0.043333 0.046667 0.050000 0.053333 0.056667 0.060000 0.063333 0.066667 0.070000 0.073333 0.076667 0.080000 0.083333 0.086667 0.090000 0.093333 0.096667 0.100000 0.103333 0.106667 0.110000 0.113333 0.116667 0.120000 0.123333 0.126667 0.130000 0.133333 0.136667 0.140000 0.143333 0.146667 0.150000 0.153333 0.156667 0.160000 0.163333 0.166667 0.170000 0.173333 0.176667 0.180000 0.183333 0.186667 0.190000 0.193333 0.196667 0.200000 0.203333 0.206667 0.210000 0.213333 0.216667 0.220000 0.223333 0.226667 0.230000 0.233333 0.236667 0.240000 0.243333 0.246667 0.250000 0.253333 0.256667 0.260000 0.263333 0.266667 0.270000 0.273333 0.276667 0.280000 0.283333 0.286667 0.290000 0.293333 0.296667 0.300000 0.303333 0.306667 0.310000 0.313333 0.316667 0.320000 0.323333 0.326667 0.330000 0.333333 0.336667 0.340000 0.343333 0.346667 0.350000 0.353333 0.356667 0.360000 0.363333 0.366667 0.370000 0.373333 0.376667 0.380000 0.383333 0.386667 0.390000 0.393333 0.396667 0.400000 0.403333 0.406667 0.410000 0.413333 0.416667 0.420000 0.423333 0.426667 0.430000 0.433333 0.436667 0.440000 0.443333 0.446667 0.450000 0.453333 0.456667 0.460000 0.463333 0.466667 0.470000 0.473333 0.476667 0.480000 0.483333 0.486667 0.490000 0.493333 0.496667 0.500000 0.503333 0.506667 0.510000 0.513333 0.516667 0.520000 0.523333 0.526667 0.530000 0.533333 0.536667 0.540000 0.543333 0.546667 0.550000 0.553333 0.556667 0.560000 0.563333 0.566667 0.570000 0.573333 0.576667 0.580000 0.583333 0.586667 0.590000 0.593333 0.596667 0.600000 0.603333 0.606667 0.610000 0.613333 0.616667 0.620000 0.623333 0.626667 0.630000 0.633333 0.636667 0.640000 0.643333 0.646667 0.650000 0.653333 0.656667 0.660000 0.663333 0.666667 0.670000 0.673333 0.676667 0.680000 0.683333 0.686667 0.690000 0.693333 0.696667 0.700000 0.703333 0.706667 0.710000 0.713333 0.716667 0.720000 0.723333 0.726667 0.730000 0.733333 0.736667 0.740000 0.743333 0.746667 0.750000 0.753333 0.756667 0.760000 0.763333 0.766667 0.770000 0.773333 0.776667 0.780000 0.783333 0.786667 0.790000 0.793333 0.796667 0.800000 0.803333 0.806667 0.810000 0.813333 0.816667 0.820000 0.823333 0.826667 0.830000 0.833333 0.836667 0.840000 0.843333 0.846667 0.850000 0.853333 0.856667 0.860000 0.863333 0.866667 0.870000 0.873333 0.876667 0.880000 0.883333 0.886667 0.890000 0.893333 0.896667 0.900000 0.903333 0.906667 0.910000 0.913333 0.916667 0.920000 0.923333 0.926667 0.930000 0.933333 0.936667 0.940000 0.943333 0.946667 0.950000 0.953333 0.956667 0.960000 0.963333 0.966667 0.970000 0.973333 0.976667 0.980000 0.983333 0.986667 0.990000 0.993333 0.996667 1.000000 
Z_COORDINATES 1 double
0
POINT_DATA 90601 
FIELD FieldData 1 
Concentração 1 90601 double 
0.000000 
0.000000 
0.000000 
0.000000 
0.000000 
0.000000 
0.000000 
0.000000 
0.000000 
0.000000 
0.000000 
0.000000 
0.000000 
0.000000 
0.000000 
0.000000 
0.000000 
0.000000 
0.000000 
0.000000 
0.000000 
0.000000 
0.000000 
0.000000 
0.000000 
0.000000 
0.000000 
0.000000 
0.000000 
0.000000 
0.000000 
0.000000 
0.000000 
0.000000 
0.000000 
0.000000 
0.000000 
0.000000 
0.000000 
0.000000 
0.000000 
0.000000 
0.000000 
0.000000 
0.000000 
0.000000 
0.000000 
0.000000 
0.000000 
0.000000 
0.000000 
0.000000 
0.000000 
0.000000 
0.000000 
0.000000 
0.000000 
0.000000 
0.000000 
0.000000 
0.000000 
0.000000 
0.000000 
0.000000 
0.000000 
0.000000 
0.000000 
0.000000 
0.000000 
0.000000 
0.000000 
0.000000 
0.000000 
0.000000 
0.000000 
0.000000 
0.000000 
0.000000 
0.000000 
0.000000 
0.000000 
0.000000 
0.000000 
0.000000 
0.000000 
0.000000 
0.000000 
0.000000 
0.000000 
0.000000 
0.000000 
0.000000 
0.000001 
0.000001 
0.000001 
0.000001 
0.000001 
0.000001 
0.000001 
0.000001 
0.000001 
0.000001 
0.000001 
0.000001 
0.000001 
0.000001 
0.000002 
0.000002 
0.000002 
0.000002 
0.000002 
0.000002 
0.000002 
0.000002 
0.000003 
0.000003 
0.000003 
0.000003 
0.000004 
0.000004 
0.000004 
0.000004 
0.000005 
0.000005 
0.000005 
0.000006 
0.000006 
0.000006 
0.000007 
0.000007 
0.000008 
0.000008 
0.000009 
0.000009 
0.000010 
0.000011 
0.000011 
0.000012 
0.000013 
0.000014 
0.000014 
0.000015 
0.000016 
0.000017 
0.000018 
0.000019 
0.000020 
0.000021 
0.000023 
0.000024 
0.000025 
0.000027 
0.000028 
0.000030 
0.000032 
0.000033 
0.000035 
0.000037 
0.000039 
0.000041 
0.000043 
0.000046 
0.000048 
0.000050 
0.000053 
0.000056 
0.000058 
0.000061 
0.000064 
0.000068 
0.000071 
0.000074 
0.000078 
0.000082 
0.000085 
0.000089 
0.000093 
0.000098 
0.000102 
0.000107 
0.000111 
0.000116 
0.000121 
0.000127 
0.000132 
0.000138 
0.000143 
0.000149 
0.000156 
0.000162 
0.000168 
0.000175 
0.000182 
0.000189 
0.000196 
0.000204 
0.000212 
0.000219 
0.000228 
0.000236 
0.000244 
0.000253 
0.000262 
0.000271 
0.000281 
0.000290 
0.000300 
0.000310 
0.000320 
0.000331 
0.000341 
0.000352 
0.000363 
0.000374 
0.000386 
0.000398 
0.000409 
0.000421 
0.000434 
0.000446 
0.000459 
0.000471 
0.000484 
0.000497 
0.000511 
0.000524 
0.000538 
0.000551 
0.000565 
0.000579 
0.000593 
0.000608 
0.000622 
0.000637 
0.000651 
0.000666 
0.000680 
0.000695 
0.000710 
0.000725 
0.000740 
0.000755 
0.000770 
0.000785 
0.000800 
0.000815 
0.000830 
0.000845 
0.000860 
0.000875 
0.000890 
0.000905 
0.000920 
0.000935 
0.000949 
0.000964 
0.000978 
0.000993 
0.001007 
0.001021 
0.001034 
0.001048 
0.001062 
0.001075 
0.001088 
0.001101 
0.001113 
0.001126 
0.001138 
0.001150 
0.001162 
0.001173 
0.001184 
0.001195 
0.001205 
0.001215 
0.001225 
0.001235 
0.001244 
0.001253 
0.001262 
0.001270 
0.001278 
0.001285 
0.001292 
0.001299 
0.001305 
0.001311 
0.001316 
0.001321 
0.001326 
0.001330 
0.001334 
0.001338 
0.001341 
0.001343 
0.001345 
0.001347 
0.001349 
0.001349 
0.001350 
0.000000 
0.000000 
0.000000 
0.000000 
0.000000 
0.000000 
0.000000 
0.000000 
0.000000 
0.000000 
0.000000 
0.000000 
0.000000 
0.000000 
0.000000 
0.000000 
0.000000 
0.000000 
0.000000 
0.000000 
0.000000 
0.000000 
0.000000 
0.000000 
0.000000 
0.000000 
0.000000 
0.000000 
0.000000 
0.000000 
0.000000 
0.000000 
0.000000 
0.000000 
0.000000 
0.000000 
0.000000 
0.000000 
0.000000 
0.000000 
0.000000 
0.000000 
0.000000 
0.000000 
0.000000 
0.000000 
0.000000 
0.000000 
0.000000 
0.000000 
0.000000 
0.000000 
0.000000 
0.000000 
0.000000 
0.000000 
0.000000 
0.000000 
0.000000 
0.000000 
0.000000 
0.000000 
0.000000 
0.000000 
0.000000 
0.000000 
0.000000 
0.000000 
0.000000 
0.000000 
0.000000 
0.000000 
0.000000 
0.000000 
0.000000 
0.000000 
0.000000 
0.000000 
0.000000 
0.000000 
0.000000 
0.000000 
0.000000 
0.000001 
0.000001 
0.000001 
0.000001 
0.000001 
0.000001 
0.000001 
0.000001 
0.000001 
0.000001 
0.000001 
0.000001 
0.000001 
0.000001 
0.000002 
0.000002 
0.000002 
0.000002 
0.000002 
0.000002 
0.000002 
0.000003 
0.000003 
0.000003 
0.000003 
0.000004 
0.000004 
0.000004 
0.000004 
0.000005 
0.000005 
0.000005 
0.000006 
0.000006 
0.000007 
0.000007 
0.000008 
0.000008 
0.000009 
0.000009 
0.000010 
0.000011 
0.000011 
0.000012 
0.000013 
0.000014 
0.000015 
0.000016 
0.000017 
0.000018 
0.000019 
0.000020 
0.000021 
0.000023 
0.000024 
0.000026 
0.000027 
0.000029 
0.000031 
0.000032 
0.000034 
0.000036 
0.000039 
0.000041 
0.000043 
0.000046 
0.000048 
0.000051 
0.000054 
0.000057 
0.000060 
0.000064 
0.000067 
0.000071 
0.000075 
0.000079 
0.000083 
0.000087 
0.000092 
0.000096 
0.000101 
0.000107 
0.000112 
0.000118 
0.000123 
0.000130 
0.000136 
0.000143 
0.000149 
0.000157 
0.000164 
0.000172 
0.000180 
0.000188 
0.000196 
0.000205 
0.000215 
0.000224 
0.000234 
0.000244 
0.000255 
0.000266 
0.000277 
0.000288 
0.000300 
0.000313 
0.000325 
0.000338 
0.000352 
0.000366 
0.000380 
0.000395 
0.000410 
0.000425 
0.000441 
0.000458 
0.000474 
0.000491 
0.000509 
0.000527 
0.000545 
0.000564 
0.000583 
0.000603 
0.000623 
0.000644 
0.000665 
0.000686 
0.000708 
0.000730 
0.000753 
0.000776 
0.000799 
0.000823 
0.000847 
0.000872 
0.000896 
0.000922 
0.000947 
0.000973 
0.001000 
0.001026 
0.001053 
0.001081 
0.001108 
0.001136 
0.001164 
0.001192 
0.001221 
0.001250 
0.001279 
0.001308 
0.001338 
0.001367 
0.001397 
0.001427 
0.001457 
0.001487 
0.001517 
0.001547 
0.001577 
0.001608 
0.001638 
0.001668 
0.001698 
0.001728 
0.001758 
0.001788 
0.001818 
0.001848 
0.001877 
0.001907 
0.001936 
0.001965 
0.001993 
0.002022 
0.002050 
0.002077 
0.002105 
0.002132 
0.002158 
0.002185 
0.002210 
0.002236 
0.002261 
0.002285 
0.002309 
0.002332 
0.002355 
0.002377 
0.002399 
0.002420 
0.002441 
0.002460 
0.002480 
0.002498 
0.002516 
0.002533 
0.002549 
0.002565 
0.002580 
0.002594 
0.002608 
0.002620 
0.002632 
0.002643 
0.002653 
0.002663 
0.002671 
0.002679 
0.002686 
0.002692 
0.002697 
0.002701 
0.002705 
0.002707 
0.002709 
0.002710 
0.000000 
0.000000 
0.000000 
0.000000 
0.000000 
0.000000 
0.000000 
0.000000 
0.000000 
0.000000 
0.000000 
0.000000 
0.000000 
0.000000 
0.000000 
0.000000 
0.000000 
0.000000 
0.000000 
0.000000 
0.000000 
0.000000 
0.000000 
0.000000 
0.000000 
0.000000 
0.000000 
0.000000 
0.000000 
0.000000 
0.000000 
0.000000 
0.000000 
0.000000 
0.000000 
0.000000 
0.000000 
0.000000 
0.000000 
0.000000 
0.000000 
0.000000 
0.000000 
0.000000 
0.000000 
0.000000 
0.000000 
0.000000 
0.000000 
0.000000 
0.000000 
0.000000 
0.000000 
0.000000 
0.000000 
0.000000 
0.000000 
0.000000 
0.000000 
0.000000 
0.000000 
0.000000 
0.000000 
0.000000 
0.000000 
0.000000 
0.000000 
0.000000 
0.000000 
0.000000 
0.000000 
0.000000 
0.000000 
0.000000 
0.000000 
0.000000 
0.000000 
0.000000 
0.000001 
0.000001 
0.000001 
0.000001 
0.000001 
0.000001 
0.000001 
0.000001 
0.000001 
0.000001 
0.000001 
0.000001 
0.000001 
0.000001 
0.000002 
0.000002 
0.000002 
0.000002 
0.000002 
0.000002 
0.000003 
0.000003 
0.000003 
0.000003 
0.000003 
0.000004 
0.000004 
0.000004 
0.000005 
0.000005 
0.000005 
0.000006 
0.000006 
0.000007 
0.000007 
0.000008 
0.000008 
0.000009 
0.000009 
0.000010 
0.000011 
0.000012 
0.000012 
0.000013 
0.000014 
0.000015 
0.000016 
0.000017 
0.000018 
0.000020 
0.000021 
0.000022 
0.000024 
0.000025 
0.000027 
0.000029 
0.000030 
0.000032 
0.000034 
0.000036 
0.000039 
0.000041 
0.000044 
0.000046 
0.000049 
0.000052 
0.000055 
0.000058 
0.000062 
0.000065 
0.000069 
0.000073 
0.000077 
0.000082 
0.000086 
0.000091 
0.000096 
0.000102 
0.000107 
0.000113 
0.000119 
0.000125 
0.000132 
0.000139 
0.000146 
0.000153 
0.000161 
0.000170 
0.000178 
0.000187 
0.000196 
0.000206 
0.000216 
0.000226 
0.000237 
0.000248 
0.000260 
0.000272 
0.000284 
0.000297 
0.000311 
0.000325 
0.000339 
0.000354 
0.000369 
0.000385 
0.000402 
0.000419 
0.000436 
0.000454 
0.000473 
0.000492 
0.000512 
0.000533 
0.000554 
0.000575 
0.000597 
0.000620 
0.000643 
0.000668 
0.000692 
0.000717 
0.000743 
0.000770 
0.000797 
0.000825 
0.000853 
0.000883 
0.000912 
0.000943 
0.000974 
0.001005 
0.001038 
0.001071 
0.001104 
0.001138 
0.001173 
0.001208 
0.001244 
0.001281 
0.001318 
0.001355 
0.001394 
0.001432 
0.001471 
0.001511 
0.001551 
0.001592 
0.001633 
0.001675 
0.001717 
0.001759 
0.001802 
0.001845 
0.001889 
0.001933 
0.001977 
0.002021 
0.002066 
0.002111 
0.002156 
0.002201 
0.002247 
0.002292 
0.002338 
0.002383 
0.002429 
0.002475 
0.002520 
0.002566 
0.002611 
0.002656 
0.002702 
0.002747 
0.002791 
0.002836 
0.002880 
0.002924 
0.002968 
0.003011 
0.003053 
0.003096 
0.003138 
0.003179 
0.003220 
0.003260 
0.003299 
0.003338 
0.003376 
0.003414 
0.003451 
0.003487 
0.003522 
0.003556 
0.003590 
0.003623 
0.003654 
0.003685 
0.003715 
0.003744 
0.003772 
0.003799 
0.003824 
0.003849 
0.003873 
0.003895 
0.003917 
0.003937 
0.003956 
0.003974 
0.003990 
0.004006 
0.004020 
0.004033 
0.004044 
0.004055 
0.004064 
0.004072 
0.004078 
0.004083 
0.004087 
0.004090 
0.004091 
0.000000 
0.000000 
0.000000 
0.000000 
0.000000 
0.000000 
0.000000 
0.000000 
0.000000 
0.000000 
0.000000 
0.000000 
0.000000 
0.000000 
0.000000 
0.000000 
0.000000 
0.000000 
0.000000 
0.000000 
0.000000 
0.000000 
0.000000 
0.000000 
0.000000 
0.000000 
0.000000 
0.000000 
0.000000 
0.000000 
0.000000 
0.000000 
0.000000 
0.000000 
0.000000 
0.000000 
0.000000 
0.000000 
0.000000 
0.000000 
0.000000 
0.000000 
0.000000 
0.000000 
0.000000 
0.000000 
0.000000 
0.000000 
0.000000 
0.000000 
0.000000 
0.000000 
0.000000 
0.000000 
0.000000 
0.000000 
0.000000 
0.000000 
0.000000 
0.000000 
0.000000 
0.000000 
0.000000 
0.000000 
0.000000 
0.000000 
0.000000 
0.000000 
0.000000 
0.000000 
0.000000 
0.000000 
0.000000 
0.000000 
0.000000 
0.000001 
0.000001 
0.000001 
0.000001 
0.000001 
0.000001 
0.000001 
0.000001 
0.000001 
0.000001 
0.000001 
0.000001 
0.000001 
0.000002 
0.000002 
0.000002 
0.000002 
0.000002 
0.000002 
0.000003 
0.000003 
0.000003 
0.000003 
0.000003 
0.000004 
0.000004 
0.000004 
0.000005 
0.000005 
0.000005 
0.000006 
0.000006 
0.000007 
0.000007 
0.000008 
0.000008 
0.000009 
0.000010 
0.000010 
0.000011 
0.000012 
0.000013 
0.000014 
0.000015 
0.000016 
0.000017 
0.000018 
0.000019 
0.000020 
0.000022 
0.000023 
0.000025 
0.000026 
0.000028 
0.000030 
0.000032 
0.000034 
0.000036 
0.000039 
0.000041 
0.000044 
0.000046 
0.000049 
0.000052 
0.000056 
0.000059 
0.000063 
0.000066 
0.000070 
0.000075 
0.000079 
0.000084 
0.000088 
0.000094 
0.000099 
0.000105 
0.000110 
0.000117 
0.000123 
0.000130 
0.000137 
0.000145 
0.000152 
0.000161 
0.000169 
0.000178 
0.000187 
0.000197 
0.000207 
0.000218 
0.000229 
0.000240 
0.000252 
0.000265 
0.000278 
0.000291 
0.000305 
0.000320 
0.000335 
0.000351 
0.000367 
0.000384 
0.000401 
0.000420 
0.000438 
0.000458 
0.000478 
0.000499 
0.000520 
0.000542 
0.000565 
0.000589 
0.000613 
0.000639 
0.000664 
0.000691 
0.000719 
0.000747 
0.000776 
0.000806 
0.000837 
0.000868 
0.000901 
0.000934 
0.000968 
0.001003 
0.001039 
0.001075 
0.001113 
0.001151 
0.001190 
0.001230 
0.001271 
0.001313 
0.001356 
0.001399 
0.001444 
0.001489 
0.001535 
0.001581 
0.001629 
0.001677 
0.001727 
0.001777 
0.001827 
0.001879 
0.001931 
0.001984 
0.002037 
0.002091 
0.002146 
0.002201 
0.002257 
0.002314 
0.002371 
0.002429 
0.002487 
0.002545 
0.002604 
0.002664 
0.002723 
0.002783 
0.002844 
0.002904 
0.002965 
0.003026 
0.003087 
0.003149 
0.003210 
0.003271 
0.003333 
0.003394 
0.003455 
0.003516 
0.003577 
0.003638 
0.003698 
0.003759 
0.003818 
0.003878 
0.003937 
0.003995 
0.004053 
0.004111 
0.004167 
0.004224 
0.004279 
0.004334 
0.004388 
0.004441 
0.004493 
0.004544 
0.004595 
0.004644 
0.004692 
0.004740 
0.004786 
0.004831 
0.004875 
0.004917 
0.004959 
0.004999 
0.005038 
0.005075 
0.005111 
0.005146 
0.005179 
0.005211 
0.005241 
0.005269 
0.005297 
0.005322 
0.005346 
0.005368 
0.005389 
0.005408 
0.005425 
0.005441 
0.005455 
0.005467 
0.005477 
0.005486 
0.005493 
0.005499 
0.005502 
0.005504 
0.000000 
0.000000 
0.000000 
0.000000 
0.000000 
0.000000 
0.000000 
0.000000 
0.000000 
0.000000 
0.000000 
0.000000 
0.000000 
0.000000 
0.000000 
0.000000 
0.000000 
0.000000 
0.000000 
0.000000 
0.000000 
0.000000 
0.000000 
0.000000 
0.000000 
0.000000 
0.000000 
0.000000 
0.000000 
0.000000 
0.000000 
0.000000 
0.000000 
0.000000 
0.000000 
0.000000 
0.000000 
0.000000 
0.000000 
0.000000 
0.000000 
0.000000 
0.000000 
0.000000 
0.000000 
0.000000 
0.000000 
0.000000 
0.000000 
0.000000 
0.000000 
0.000000 
0.000000 
0.000000 
0.000000 
0.000000 
0.000000 
0.000000 
0.000000 
0.000000 
0.000000 
0.000000 
0.000000 
0.000000 
0.000000 
0.000000 
0.000000 
0.000000 
0.000000 
0.000000 
0.000000 
0.000000 
0.000001 
0.000001 
0.000001 
0.000001 
0.000001 
0.000001 
0.000001 
0.000001 
0.000001 
0.000001 
0.000001 
0.000001 
0.000001 
0.000002 
0.000002 
0.000002 
0.000002 
0.000002 
0.000002 
0.000003 
0.000003 
0.000003 
0.000003 
0.000003 
0.000004 
0.000004 
0.000004 
0.000005 
0.000005 
0.000005 
0.000006 
0.000006 
0.000007 
0.000007 
0.000008 
0.000009 
0.000009 
0.000010 
0.000011 
0.000011 
0.000012 
0.000013 
0.000014 
0.000015 
0.000016 
0.000017 
0.000018 
0.000020 
0.000021 
0.000023 
0.000024 
0.000026 
0.000028 
0.000029 
0.000031 
0.000034 
0.000036 
0.000038 
0.000041 
0.000043 
0.000046 
0.000049 
0.000052 
0.000055 
0.000059 
0.000063 
0.000067 
0.000071 
0.000075 
0.000080 
0.000084 
0.000089 
0.000095 
0.000100 
0.000106 
0.000112 
0.000119 
0.000126 
0.000133 
0.000140 
0.000148 
0.000157 
0.000165 
0.000174 
0.000184 
0.000194 
0.000204 
0.000215 
0.000226 
0.000238 
0.000251 
0.000263 
0.000277 
0.000291 
0.000305 
0.000321 
0.000337 
0.000353 
0.000370 
0.000388 
0.000406 
0.000426 
0.000446 
0.000466 
0.000488 
0.000510 
0.000533 
0.000557 
0.000581 
0.000607 
0.000633 
0.000661 
0.000689 
0.000718 
0.000748 
0.000779 
0.000811 
0.000843 
0.000877 
0.000912 
0.000948 
0.000985 
0.001023 
0.001062 
0.001102 
0.001143 
0.001185 
0.001228 
0.001273 
0.001318 
0.001364 
0.001412 
0.001460 
0.001510 
0.001561 
0.001613 
0.001666 
0.001720 
0.001775 
0.001831 
0.001888 
0.001946 
0.002005 
0.002066 
0.002127 
0.002189 
0.002252 
0.002316 
0.002381 
0.002447 
0.002514 
0.002582 
0.002650 
0.002720 
0.002790 
0.002861 
0.002932 
0.003004 
0.003077 
0.003151 
0.003225 
0.003299 
0.003374 
0.003450 
0.003526 
0.003602 
0.003678 
0.003755 
0.003832 
0.003910 
0.003987 
0.004065 
0.004142 
0.004220 
0.004297 
0.004374 
0.004451 
0.004528 
0.004605 
0.004681 
0.004757 
0.004833 
0.004908 
0.004982 
0.005056 
0.005129 
0.005202 
0.005273 
0.005344 
0.005414 
0.005483 
0.005551 
0.005618 
0.005684 
0.005749 
0.005812 
0.005875 
0.005936 
0.005995 
0.006054 
0.006110 
0.006166 
0.006219 
0.006272 
0.006322 
0.006371 
0.006418 
0.006464 
0.006507 
0.006549 
0.006589 
0.006627 
0.006663 
0.006697 
0.006729 
0.006760 
0.006788 
0.006814 
0.006838 
0.006860 
0.006879 
0.006897 
0.006912 
0.006925 
0.006936 
0.006945 
0.006952 
0.006956 
0.006959 
0.000000 
0.000000 
0.000000 
0.000000 
0.000000 
0.000000 
0.000000 
0.000000 
0.000000 
0.000000 
0.000000 
0.000000 
0.000000 
0.000000 
0.000000 
0.000000 
0.000000 
0.000000 
0.000000 
0.000000 
0.000000 
0.000000 
0.000000 
0.000000 
0.000000 
0.000000 
0.000000 
0.000000 
0.000000 
0.000000 
0.000000 
0.000000 
0.000000 
0.000000 
0.000000 
0.000000 
0.000000 
0.000000 
0.000000 
0.000000 
0.000000 
0.000000 
0.000000 
0.000000 
0.000000 
0.000000 
0.000000 
0.000000 
0.000000 
0.000000 
0.000000 
0.000000 
0.000000 
0.000000 
0.000000 
0.000000 
0.000000 
0.000000 
0.000000 
0.000000 
0.000000 
0.000000 
0.000000 
0.000000 
0.000000 
0.000000 
0.000000 
0.000000 
0.000000 
0.000001 
0.000001 
0.000001 
0.000001 
0.000001 
0.000001 
0.000001 
0.000001 
0.000001 
0.000001 
0.000001 
0.000001 
0.000001 
0.000002 
0.000002 
0.000002 
0.000002 
0.000002 
0.000002 
0.000002 
0.000003 
0.000003 
0.000003 
0.000003 
0.000004 
0.000004 
0.000004 
0.000005 
0.000005 
0.000005 
0.000006 
0.000006 
0.000007 
0.000007 
0.000008 
0.000008 
0.000009 
0.000010 
0.000010 
0.000011 
0.000012 
0.000013 
0.000014 
0.000015 
0.000016 
0.000017 
0.000018 
0.000020 
0.000021 
0.000023 
0.000024 
0.000026 
0.000028 
0.000030 
0.000032 
0.000034 
0.000036 
0.000039 
0.000041 
0.000044 
0.000047 
0.000050 
0.000053 
0.000056 
0.000060 
0.000064 
0.000068 
0.000072 
0.000077 
0.000082 
0.000087 
0.000092 
0.000097 
0.000103 
0.000110 
0.000116 
0.000123 
0.000130 
0.000138 
0.000146 
0.000154 
0.000163 
0.000172 
0.000182 
0.000192 
0.000202 
0.000213 
0.000225 
0.000237 
0.000250 
0.000263 
0.000277 
0.000292 
0.000307 
0.000322 
0.000339 
0.000356 
0.000374 
0.000392 
0.000412 
0.000432 
0.000453 
0.000475 
0.000497 
0.000521 
0.000545 
0.000570 
0.000597 
0.000624 
0.000652 
0.000681 
0.000711 
0.000742 
0.000775 
0.000808 
0.000842 
0.000878 
0.000914 
0.000952 
0.000991 
0.001031 
0.001073 
0.001115 
0.001159 
0.001204 
0.001250 
0.001298 
0.001347 
0.001397 
0.001448 
0.001501 
0.001555 
0.001610 
0.001667 
0.001725 
0.001784 
0.001845 
0.001907 
0.001970 
0.002034 
0.002100 
0.002167 
0.002236 
0.002305 
0.002376 
0.002448 
0.002522 
0.002596 
0.002672 
0.002749 
0.002827 
0.002907 
0.002987 
0.003068 
0.003151 
0.003234 
0.003318 
0.003404 
0.003490 
0.003577 
0.003665 
0.003753 
0.003843 
0.003933 
0.004024 
0.004115 
0.004207 
0.004299 
0.004392 
0.004485 
0.004578 
0.004672 
0.004766 
0.004860 
0.004954 
0.005048 
0.005143 
0.005237 
0.005331 
0.005424 
0.005518 
0.005611 
0.005704 
0.005796 
0.005887 
0.005978 
0.006069 
0.006158 
0.006247 
0.006335 
0.006422 
0.006508 
0.006593 
0.006677 
0.006760 
0.006841 
0.006921 
0.006999 
0.007076 
0.007152 
0.007226 
0.007298 
0.007369 
0.007438 
0.007505 
0.007570 
0.007634 
0.007695 
0.007754 
0.007811 
0.007866 
0.007919 
0.007970 
0.008018 
0.008064 
0.008108 
0.008150 
0.008189 
0.008225 
0.008259 
0.008291 
0.008320 
0.008346 
0.008370 
0.008391 
0.008410 
0.008426 
0.008439 
0.008450 
0.008458 
0.008464 
0.008466 
0.000000 
0.000000 
0.000000 
0.000000 
0.000000 
0.000000 
0.000000 
0.000000 
0.000000 
0.000000 
0.000000 
0.000000 
0.000000 
0.000000 
0.000000 
0.000000 
0.000000 
0.000000 
0.000000 
0.000000 
0.000000 
0.000000 
0.000000 
0.000000 
0.000000 
0.000000 
0.000000 
0.000000 
0.000000 
0.000000 
0.000000 
0.000000 
0.000000 
0.000000 
0.000000 
0.000000 
0.000000 
0.000000 
0.000000 
0.000000 
0.000000 
0.000000 
0.000000 
0.000000 
0.000000 
0.000000 
0.000000 
0.000000 
0.000000 
0.000000 
0.000000 
0.000000 
0.000000 
0.000000 
0.000000 
0.000000 
0.000000 
0.000000 
0.000000 
0.000000 
0.000000 
0.000000 
0.000000 
0.000000 
0.000000 
0.000000 
0.000000 
0.000001 
0.000001 
0.000001 
0.000001 
0.000001 
0.000001 
0.000001 
0.000001 
0.000001 
0.000001 
0.000001 
0.000001 
0.000001 
0.000002 
0.000002 
0.000002 
0.000002 
0.000002 
0.000002 
0.000003 
0.000003 
0.000003 
0.000003 
0.000003 
0.000004 
0.000004 
0.000004 
0.000005 
0.000005 
0.000006 
0.000006 
0.000006 
0.000007 
0.000007 
0.000008 
0.000009 
0.000009 
0.000010 
0.000011 
0.000012 
0.000013 
0.000013 
0.000014 
0.000016 
0.000017 
0.000018 
0.000019 
0.000021 
0.000022 
0.000024 
0.000025 
0.000027 
0.000029 
0.000031 
0.000033 
0.000035 
0.000038 
0.000040 
0.000043 
0.000046 
0.000049 
0.000052 
0.000056 
0.000060 
0.000063 
0.000067 
0.000072 
0.000076 
0.000081 
0.000086 
0.000092 
0.000097 
0.000103 
0.000110 
0.000116 
0.000123 
0.000131 
0.000139 
0.000147 
0.000155 
0.000164 
0.000174 
0.000184 
0.000194 
0.000205 
0.000217 
0.000229 
0.000242 
0.000255 
0.000269 
0.000283 
0.000298 
0.000314 
0.000331 
0.000348 
0.000366 
0.000385 
0.000405 
0.000425 
0.000446 
0.000469 
0.000492 
0.000516 
0.000541 
0.000567 
0.000593 
0.000621 
0.000650 
0.000681 
0.000712 
0.000744 
0.000778 
0.000812 
0.000848 
0.000886 
0.000924 
0.000964 
0.001005 
0.001047 
0.001091 
0.001136 
0.001182 
0.001230 
0.001279 
0.001330 
0.001382 
0.001435 
0.001491 
0.001547 
0.001605 
0.001665 
0.001726 
0.001789 
0.001853 
0.001919 
0.001986 
0.002055 
0.002126 
0.002198 
0.002271 
0.002346 
0.002423 
0.002501 
0.002581 
0.002662 
0.002745 
0.002829 
0.002915 
0.003002 
0.003091 
0.003181 
0.003272 
0.003365 
0.003459 
0.003554 
0.003651 
0.003748 
0.003847 
0.003948 
0.004049 
0.004151 
0.004254 
0.004358 
0.004463 
0.004569 
0.004676 
0.004784 
0.004892 
0.005001 
0.005110 
0.005220 
0.005330 
0.005441 
0.005552 
0.005663 
0.005775 
0.005886 
0.005998 
0.006109 
0.006221 
0.006332 
0.006443 
0.006553 
0.006663 
0.006773 
0.006882 
0.006991 
0.007098 
0.007205 
0.007311 
0.007416 
0.007520 
0.007623 
0.007725 
0.007825 
0.007924 
0.008022 
0.008118 
0.008213 
0.008305 
0.008396 
0.008486 
0.008573 
0.008659 
0.008742 
0.008824 
0.008903 
0.008980 
0.009054 
0.009127 
0.009197 
0.009264 
0.009329 
0.009392 
0.009452 
0.009509 
0.009563 
0.009615 
0.009664 
0.009710 
0.009753 
0.009793 
0.009830 
0.009865 
0.009896 
0.009924 
0.009949 
0.009971 
0.009990 
0.010006 
0.010019 
0.010028 
0.010034 
0.010038 
0.000000 
0.000000 
0.000000 
0.000000 
0.000000 
0.000000 
0.000000 
0.000000 
0.000000 
0.000000 
0.000000 
0.000000 
0.000000 
0.000000 
0.000000 
0.000000 
0.000000 
0.000000 
0.000000 
0.000000 
0.000000 
0.000000 
0.000000 
0.000000 
0.000000 
0.000000 
0.000000 
0.000000 
0.000000 
0.000000 
0.000000 
0.000000 
0.000000 
0.000000 
0.000000 
0.000000 
0.000000 
0.000000 
0.000000 
0.000000 
0.000000 
0.000000 
0.000000 
0.000000 
0.000000 
0.000000 
0.000000 
0.000000 
0.000000 
0.000000 
0.000000 
0.000000 
0.000000 
0.000000 
0.000000 
0.000000 
0.000000 
0.000000 
0.000000 
0.000000 
0.000000 
0.000000 
0.000000 
0.000000 
0.000000 
0.000000 
0.000001 
0.000001 
0.000001 
0.000001 
0.000001 
0.000001 
0.000001 
0.000001 
0.000001 
0.000001 
0.000001 
0.000001 
0.000002 
0.000002 
0.000002 
0.000002 
0.000002 
0.000002 
0.000003 
0.000003 
0.000003 
0.000003 
0.000003 
0.000004 
0.000004 
0.000004 
0.000005 
0.000005 
0.000006 
0.000006 
0.000006 
0.000007 
0.000008 
0.000008 
0.000009 
0.000009 
0.000010 
0.000011 
0.000012 
0.000013 
0.000014 
0.000015 
0.000016 
0.000017 
0.000018 
0.000020 
0.000021 
0.000023 
0.000024 
0.000026 
0.000028 
0.000030 
0.000032 
0.000034 
0.000036 
0.000039 
0.000042 
0.000044 
0.000048 
0.000051 
0.000054 
0.000058 
0.000062 
0.000066 
0.000070 
0.000074 
0.000079 
0.000084 
0.000090 
0.000095 
0.000101 
0.000108 
0.000114 
0.000121 
0.000129 
0.000137 
0.000145 
0.000154 
0.000163 
0.000172 
0.000183 
0.000193 
0.000204 
0.000216 
0.000228 
0.000241 
0.000255 
0.000269 
0.000284 
0.000299 
0.000315 
0.000332 
0.000350 
0.000369 
0.000388 
0.000409 
0.000430 
0.000452 
0.000475 
0.000499 
0.000524 
0.000550 
0.000577 
0.000605 
0.000634 
0.000664 
0.000696 
0.000729 
0.000763 
0.000798 
0.000835 
0.000873 
0.000912 
0.000953 
0.000995 
0.001038 
0.001083 
0.001129 
0.001177 
0.001227 
0.001278 
0.001331 
0.001385 
0.001441 
0.001498 
0.001558 
0.001619 
0.001681 
0.001746 
0.001812 
0.001880 
0.001950 
0.002021 
0.002094 
0.002169 
0.002246 
0.002325 
0.002405 
0.002488 
0.002572 
0.002658 
0.002745 
0.002835 
0.002926 
0.003019 
0.003114 
0.003211 
0.003309 
0.003409 
0.003511 
0.003614 
0.003719 
0.003825 
0.003933 
0.004043 
0.004154 
0.004267 
0.004381 
0.004496 
0.004612 
0.004730 
0.004849 
0.004970 
0.005091 
0.005213 
0.005337 
0.005461 
0.005586 
0.005712 
0.005838 
0.005966 
0.006093 
0.006222 
0.006350 
0.006479 
0.006609 
0.006738 
0.006868 
0.006998 
0.007127 
0.007257 
0.007386 
0.007515 
0.007643 
0.007771 
0.007898 
0.008025 
0.008151 
0.008276 
0.008400 
0.008523 
0.008645 
0.008766 
0.008885 
0.009003 
0.009120 
0.009234 
0.009348 
0.009459 
0.009569 
0.009676 
0.009782 
0.009886 
0.009987 
0.010086 
0.010183 
0.010277 
0.010369 
0.010458 
0.010545 
0.010629 
0.010710 
0.010788 
0.010863 
0.010936 
0.011005 
0.011071 
0.011134 
0.011194 
0.011251 
0.011304 
0.011354 
0.011401 
0.011444 
0.011483 
0.011519 
0.011552 
0.011581 
0.011607 
0.011629 
0.011647 
0.011662 
0.011672 
0.011680 
0.011683 
0.000000 
0.000000 
0.000000 
0.000000 
0.000000 
0.000000 
0.000000 
0.000000 
0.000000 
0.000000 
0.000000 
0.000000 
0.000000 
0.000000 
0.000000 
0.000000 
0.000000 
0.000000 
0.000000 
0.000000 
0.000000 
0.000000 
0.000000 
0.000000 
0.000000 
0.000000 