# vtk DataFile Version 3.0
results.vtk
ASCII
DATASET RECTILINEAR_GRID
DIMENSIONS 301 301 1
X_COORDINATES 301 double
0.000000 0.003333 0.006667 0.010000 0.013333 0.016667 0.020000 0.023333 0.026667 0.030000 0.033333 0.036667 0.040000 0.043333 0.046667 0.050000 0.053333 0.056667 0.060000 0.063333 0.066667 0.070000 0.073333 0.076667 0.080000 0.083333 0.086667 0.090000 0.093333 0.096667 0.100000 0.103333 0.106667 0.110000 0.113333 0.116667 0.120000 0.123333 0.126667 0.130000 0.133333 0.136667 0.140000 0.143333 0.146667 0.150000 0.153333 0.156667 0.160000 0.163333 0.166667 0.170000 0.173333 0.176667 0.180000 0.183333 0.186667 0.190000 0.193333 0.196667 0.200000 0.203333 0.206667 0.210000 0.213333 0.216667 0.220000 0.223333 0.226667 0.230000 0.233333 0.236667 0.240000 0.243333 0.246667 0.250000 0.253333 0.256667 0.260000 0.263333 0.266667 0.270000 0.273333 0.276667 0.280000 0.283333 0.286667 0.290000 0.293333 0.296667 0.300000 0.303333 0.306667 0.310000 0.313333 0.316667 0.320000 0.323333 0.326667 0.330000 0.333333 0.336667 0.340000 0.343333 0.346667 0.350000 0.353333 0.356667 0.360000 0.363333 0.366667 0.370000 0.373333 0.376667 0.380000 0.383333 0.386667 0.390000 0.393333 0.396667 0.400000 0.403333 0.406667 0.410000 0.413333 0.416667 0.420000 0.423333 0.426667 0.430000 0.433333 0.436667 0.440000 0.443333 0.446667 0.450000 0.453333 0.456667 0.460000 0.463333 0.466667 0.470000 0.473333 0.476667 0.480000 0.483333 0.486667 0.490000 0.493333 0.496667 0.500000 0.503333 0.506667 0.510000 0.513333 0.516667 0.520000 0.523333 0.526667 0.530000 0.533333 0.536667 0.540000 0.543333 0.546667 0.550000 0.553333 0.556667 0.560000 0.563333 0.566667 0.570000 0.573333 0.576667 0.580000 0.583333 0.586667 0.590000 0.593333 0.596667 0.600000 0.603333 0.606667 0.610000 0.613333 0.616667 0.620000 0.623333 0.626667 0.630000 0.633333 0.636667 0.640000 0.643333 0.646667 0.650000 0.653333 0.656667 0.660000 0.663333 0.666667 0.670000 0.673333 0.676667 0.680000 0.683333 0.686667 0.690000 0.693333 0.696667 0.700000 0.703333 0.706667 0.710000 0.713333 0.716667 0.720000 0.723333 0.726667 0.730000 0.733333 0.736667 0.740000 0.743333 0.746667 0.750000 0.753333 0.756667 0.760000 0.763333 0.766667 0.770000 0.773333 0.776667 0.780000 0.783333 0.786667 0.790000 0.793333 0.796667 0.800000 0.803333 0.806667 0.810000 0.813333 0.816667 0.820000 0.823333 0.826667 0.830000 0.833333 0.836667 0.840000 0.843333 0.846667 0.850000 0.853333 0.856667 0.860000 0.863333 0.866667 0.870000 0.873333 0.876667 0.880000 0.883333 0.886667 0.890000 0.893333 0.896667 0.900000 0.903333 0.906667 0.910000 0.913333 0.916667 0.920000 0.923333 0.926667 0.930000 0.933333 0.936667 0.940000 0.943333 0.946667 0.950000 0.953333 0.956667 0.960000 0.963333 0.966667 0.970000 0.973333 0.976667 0.980000 0.983333 0.986667 0.990000 0.993333 0.996667 1.000000 
Y_COORDINATES 301 double
0.000000 0.003333 0.006667 0.010000 0.013333 0.016667 0.020000 0.023333 0.026667 0.030000 0.033333 0.036667 0.040000 0.043333 0.046667 0.050000 0.053333 0.056667 0.060000 0.063333 0.066667 0.070000 0.073333 0.076667 0.080000 0.083333 0.086667 0.090000 0.093333 0.096667 0.100000 0.103333 0.106667 0.110000 0.113333 0.116667 0.120000 0.123333 0.126667 0.130000 0.133333 0.136667 0.140000 0.143333 0.146667 0.150000 0.153333 0.156667 0.160000 0.163333 0.166667 0.170000 0.173333 0.176667 0.180000 0.183333 0.186667 0.190000 0.193333 0.196667 0.200000 0.203333 0.206667 0.210000 0.213333 0.216667 0.220000 0.223333 0.226667 0.230000 0.233333 0.236667 0.240000 0.243333 0.246667 0.250000 0.253333 0.256667 0.260000 0.263333 0.266667 0.270000 0.273333 0.276667 0.280000 0.283333 0.286667 0.290000 0.293333 0.296667 0.300000 0.303333 0.306667 0.310000 0.313333 0.316667 0.320000 0.323333 0.326667 0.330000 0.333333 0.336667 0.340000 0.343333 0.346667 0.350000 0.353333 0.356667 0.360000 0.363333 0.366667 0.370000 0.373333 0.376667 0.380000 0.383333 0.386667 0.390000 0.393333 0.396667 0.400000 0.403333 0.406667 0.410000 0.413333 0.416667 0.420000 0.423333 0.426667 0.430000 0.433333 0.436667 0.440000 0.443333 0.446667 0.450000 0.453333 0.456667 0.460000 0.463333 0.466667 0.470000 0.473333 0.476667 0.480000 0.483333 0.486667 0.490000 0.493333 0.496667 0.500000 0.503333 0.506667 0.510000 0.513333 0.516667 0.520000 0.523333 0.526667 0.530000 0.533333 0.536667 0.540000 0.543333 0.546667 0.550000 0.553333 0.556667 0.560000 0.563333 0.566667 0.570000 0.573333 0.576667 0.580000 0.583333 0.586667 0.590000 0.593333 0.596667 0.600000 0.603333 0.606667 0.610000 0.613333 0.616667 0.620000 0.623333 0.626667 0.630000 0.633333 0.636667 0.640000 0.643333 0.646667 0.650000 0.653333 0.656667 0.660000 0.663333 0.666667 0.670000 0.673333 0.676667 0.680000 0.683333 0.686667 0.690000 0.693333 0.696667 0.700000 0.703333 0.706667 0.710000 0.713333 0.716667 0.720000 0.723333 0.726667 0.730000 0.733333 0.736667 0.740000 0.743333 0.746667 0.750000 0.753333 0.756667 0.760000 0.763333 0.766667 0.770000 0.773333 0.776667 0.780000 0.783333 0.786667 0.790000 0.793333 0.796667 0.800000 0.803333 0.806667 0.810000 0.813333 0.816667 0.820000 0.823333 0.826667 0.830000 0.833333 0.836667 0.840000 0.843333 0.846667 0.850000 0.853333 0.856667 0.860000 0.863333 0.866667 0.870000 0.873333 0.876667 0.880000 0.883333 0.886667 0.890000 0.893333 0.896667 0.900000 0.903333 0.906667 0.910000 0.913333 0.916667 0.920000 0.923333 0.926667 0.930000 0.933333 0.936667 0.940000 0.943333 0.946667 0.950000 0.953333 0.956667 0.960000 0.963333 0.966667 0.970000 0.973333 0.976667 0.980000 0.983333 0.986667 0.990000 0.993333 0.996667 1.000000 
Z_COORDINATES 1 double
0
POINT_DATA 90601 
FIELD FieldData 1 
Concentração 1 90601 double 
0.000000 
0.000000 
0.000000 
0.000000 
0.000000 
0.000000 
0.000000 
0.000000 
0.000000 
0.000000 
0.000000 
0.000000 
0.000000 
0.000000 
0.000000 
0.000000 
0.000000 
0.000000 
0.000000 
0.000000 
0.000000 
0.000000 
0.000000 
0.000000 
0.000000 
0.000000 
0.000000 
0.000000 
0.000000 
0.000000 
0.000000 
0.000000 
0.000000 
0.000000 
0.000000 
0.000000 
0.000000 
0.000000 
0.000000 
0.000000 
0.000000 
0.000000 
0.000000 
0.000000 
0.000000 
0.000000 
0.000000 
0.000000 
0.000000 
0.000000 
0.000000 
0.000000 
0.000000 
0.000000 
0.000000 
0.000000 
0.000000 
0.000000 
0.000000 
0.000000 
0.000000 
0.000000 
0.000000 
0.000000 
0.000000 
0.000000 
0.000000 
0.000000 
0.000000 
0.000000 
0.000000 
0.000000 
0.000000 
0.000000 
0.000000 
0.000000 
0.000000 
0.000000 
0.000000 
0.000000 
0.000000 
0.000000 
0.000000 
0.000000 
0.000000 
0.000000 
0.000000 
0.000000 
0.000000 
0.000001 
0.000001 
0.000001 
0.000001 
0.000001 
0.000001 
0.000001 
0.000001 
0.000001 
0.000001 
0.000001 
0.000001 
0.000001 
0.000001 
0.000001 
0.000002 
0.000002 
0.000002 
0.000002 
0.000002 
0.000002 
0.000002 
0.000003 
0.000003 
0.000003 
0.000003 
0.000003 
0.000004 
0.000004 
0.000004 
0.000005 
0.000005 
0.000005 
0.000006 
0.000006 
0.000006 
0.000007 
0.000007 
0.000008 
0.000008 
0.000009 
0.000009 
0.000010 
0.000010 
0.000011 
0.000012 
0.000013 
0.000013 
0.000014 
0.000015 
0.000016 
0.000017 
0.000018 
0.000019 
0.000020 
0.000021 
0.000023 
0.000024 
0.000025 
0.000027 
0.000028 
0.000030 
0.000032 
0.000034 
0.000035 
0.000037 
0.000039 
0.000041 
0.000044 
0.000046 
0.000048 
0.000051 
0.000054 
0.000056 
0.000059 
0.000062 
0.000066 
0.000069 
0.000072 
0.000076 
0.000079 
0.000083 
0.000087 
0.000091 
0.000096 
0.000100 
0.000105 
0.000110 
0.000115 
0.000120 
0.000125 
0.000130 
0.000136 
0.000142 
0.000148 
0.000154 
0.000161 
0.000168 
0.000175 
0.000182 
0.000189 
0.000196 
0.000204 
0.000212 
0.000220 
0.000229 
0.000238 
0.000246 
0.000256 
0.000265 
0.000275 
0.000284 
0.000294 
0.000305 
0.000315 
0.000326 
0.000337 
0.000348 
0.000360 
0.000372 
0.000384 
0.000396 
0.000408 
0.000421 
0.000434 
0.000447 
0.000460 
0.000474 
0.000488 
0.000502 
0.000516 
0.000530 
0.000545 
0.000560 
0.000575 
0.000590 
0.000605 
0.000621 
0.000636 
0.000652 
0.000668 
0.000684 
0.000700 
0.000717 
0.000733 
0.000750 
0.000766 
0.000783 
0.000800 
0.000817 
0.000834 
0.000851 
0.000868 
0.000885 
0.000902 
0.000919 
0.000936 
0.000953 
0.000970 
0.000987 
0.001004 
0.001021 
0.001038 
0.001055 
0.001071 
0.001088 
0.001104 
0.001120 
0.001137 
0.001153 
0.001168 
0.001184 
0.001199 
0.001214 
0.001229 
0.001244 
0.001259 
0.001273 
0.001287 
0.001301 
0.001314 
0.001327 
0.001340 
0.001352 
0.001365 
0.001376 
0.001388 
0.001399 
0.001410 
0.001420 
0.001430 
0.001440 
0.001449 
0.001458 
0.001466 
0.001474 
0.001481 
0.001488 
0.001495 
0.001501 
0.001507 
0.001512 
0.001517 
0.001521 
0.001525 
0.001529 
0.001531 
0.001534 
0.001536 
0.001537 
0.001538 
0.001539 
0.000000 
0.000000 
0.000000 
0.000000 
0.000000 
0.000000 
0.000000 
0.000000 
0.000000 
0.000000 
0.000000 
0.000000 
0.000000 
0.000000 
0.000000 
0.000000 
0.000000 
0.000000 
0.000000 
0.000000 
0.000000 
0.000000 
0.000000 
0.000000 
0.000000 
0.000000 
0.000000 
0.000000 
0.000000 
0.000000 
0.000000 
0.000000 
0.000000 
0.000000 
0.000000 
0.000000 
0.000000 
0.000000 
0.000000 
0.000000 
0.000000 
0.000000 
0.000000 
0.000000 
0.000000 
0.000000 
0.000000 
0.000000 
0.000000 
0.000000 
0.000000 
0.000000 
0.000000 
0.000000 
0.000000 
0.000000 
0.000000 
0.000000 
0.000000 
0.000000 
0.000000 
0.000000 
0.000000 
0.000000 
0.000000 
0.000000 
0.000000 
0.000000 
0.000000 
0.000000 
0.000000 
0.000000 
0.000000 
0.000000 
0.000000 
0.000000 
0.000000 
0.000000 
0.000000 
0.000000 
0.000000 
0.000001 
0.000001 
0.000001 
0.000001 
0.000001 
0.000001 
0.000001 
0.000001 
0.000001 
0.000001 
0.000001 
0.000001 
0.000001 
0.000001 
0.000002 
0.000002 
0.000002 
0.000002 
0.000002 
0.000002 
0.000003 
0.000003 
0.000003 
0.000003 
0.000003 
0.000004 
0.000004 
0.000004 
0.000005 
0.000005 
0.000005 
0.000006 
0.000006 
0.000006 
0.000007 
0.000007 
0.000008 
0.000008 
0.000009 
0.000010 
0.000010 
0.000011 
0.000012 
0.000013 
0.000014 
0.000014 
0.000015 
0.000016 
0.000017 
0.000019 
0.000020 
0.000021 
0.000022 
0.000024 
0.000025 
0.000027 
0.000029 
0.000030 
0.000032 
0.000034 
0.000036 
0.000038 
0.000041 
0.000043 
0.000046 
0.000048 
0.000051 
0.000054 
0.000057 
0.000060 
0.000064 
0.000067 
0.000071 
0.000075 
0.000079 
0.000083 
0.000088 
0.000093 
0.000098 
0.000103 
0.000108 
0.000114 
0.000119 
0.000125 
0.000132 
0.000138 
0.000145 
0.000152 
0.000160 
0.000167 
0.000175 
0.000184 
0.000192 
0.000201 
0.000211 
0.000220 
0.000230 
0.000241 
0.000251 
0.000262 
0.000274 
0.000286 
0.000298 
0.000310 
0.000324 
0.000337 
0.000351 
0.000365 
0.000380 
0.000395 
0.000411 
0.000427 
0.000443 
0.000460 
0.000478 
0.000495 
0.000514 
0.000533 
0.000552 
0.000572 
0.000592 
0.000613 
0.000634 
0.000655 
0.000678 
0.000700 
0.000723 
0.000747 
0.000771 
0.000796 
0.000821 
0.000846 
0.000872 
0.000898 
0.000925 
0.000952 
0.000980 
0.001008 
0.001037 
0.001065 
0.001095 
0.001124 
0.001154 
0.001185 
0.001216 
0.001247 
0.001278 
0.001310 
0.001342 
0.001374 
0.001407 
0.001440 
0.001473 
0.001506 
0.001539 
0.001573 
0.001607 
0.001641 
0.001675 
0.001709 
0.001743 
0.001777 
0.001812 
0.001846 
0.001880 
0.001915 
0.001949 
0.001983 
0.002017 
0.002051 
0.002084 
0.002118 
0.002151 
0.002184 
0.002217 
0.002250 
0.002282 
0.002314 
0.002346 
0.002377 
0.002408 
0.002438 
0.002468 
0.002498 
0.002527 
0.002556 
0.002584 
0.002611 
0.002638 
0.002664 
0.002690 
0.002715 
0.002739 
0.002763 
0.002786 
0.002808 
0.002830 
0.002851 
0.002871 
0.002890 
0.002908 
0.002926 
0.002943 
0.002959 
0.002974 
0.002988 
0.003001 
0.003014 
0.003025 
0.003036 
0.003045 
0.003054 
0.003062 
0.003068 
0.003074 
0.003079 
0.003083 
0.003086 
0.003088 
0.003089 
0.000000 
0.000000 
0.000000 
0.000000 
0.000000 
0.000000 
0.000000 
0.000000 
0.000000 
0.000000 
0.000000 
0.000000 
0.000000 
0.000000 
0.000000 
0.000000 
0.000000 
0.000000 
0.000000 
0.000000 
0.000000 
0.000000 
0.000000 
0.000000 
0.000000 
0.000000 
0.000000 
0.000000 
0.000000 
0.000000 
0.000000 
0.000000 
0.000000 
0.000000 
0.000000 
0.000000 
0.000000 
0.000000 
0.000000 
0.000000 
0.000000 
0.000000 
0.000000 
0.000000 
0.000000 
0.000000 
0.000000 
0.000000 
0.000000 
0.000000 
0.000000 
0.000000 
0.000000 
0.000000 
0.000000 
0.000000 
0.000000 
0.000000 
0.000000 
0.000000 
0.000000 
0.000000 
0.000000 
0.000000 
0.000000 
0.000000 
0.000000 
0.000000 
0.000000 
0.000000 
0.000000 
0.000000 
0.000000 
0.000000 
0.000000 
0.000000 
0.000001 
0.000001 
0.000001 
0.000001 
0.000001 
0.000001 
0.000001 
0.000001 
0.000001 
0.000001 
0.000001 
0.000001 
0.000001 
0.000002 
0.000002 
0.000002 
0.000002 
0.000002 
0.000002 
0.000002 
0.000003 
0.000003 
0.000003 
0.000003 
0.000004 
0.000004 
0.000004 
0.000004 
0.000005 
0.000005 
0.000006 
0.000006 
0.000006 
0.000007 
0.000007 
0.000008 
0.000009 
0.000009 
0.000010 
0.000010 
0.000011 
0.000012 
0.000013 
0.000014 
0.000015 
0.000016 
0.000017 
0.000018 
0.000019 
0.000020 
0.000022 
0.000023 
0.000025 
0.000026 
0.000028 
0.000030 
0.000032 
0.000034 
0.000036 
0.000038 
0.000041 
0.000043 
0.000046 
0.000049 
0.000052 
0.000055 
0.000058 
0.000062 
0.000065 
0.000069 
0.000073 
0.000077 
0.000082 
0.000087 
0.000092 
0.000097 
0.000102 
0.000108 
0.000114 
0.000120 
0.000126 
0.000133 
0.000140 
0.000148 
0.000155 
0.000163 
0.000172 
0.000181 
0.000190 
0.000199 
0.000209 
0.000220 
0.000231 
0.000242 
0.000253 
0.000265 
0.000278 
0.000291 
0.000305 
0.000319 
0.000333 
0.000348 
0.000364 
0.000380 
0.000397 
0.000414 
0.000432 
0.000451 
0.000470 
0.000489 
0.000510 
0.000531 
0.000552 
0.000575 
0.000598 
0.000621 
0.000645 
0.000670 
0.000696 
0.000722 
0.000749 
0.000777 
0.000805 
0.000835 
0.000865 
0.000895 
0.000926 
0.000958 
0.000991 
0.001025 
0.001059 
0.001094 
0.001129 
0.001166 
0.001203 
0.001241 
0.001279 
0.001318 
0.001358 
0.001398 
0.001440 
0.001481 
0.001524 
0.001567 
0.001610 
0.001655 
0.001700 
0.001745 
0.001791 
0.001837 
0.001884 
0.001932 
0.001980 
0.002028 
0.002077 
0.002126 
0.002175 
0.002225 
0.002275 
0.002326 
0.002377 
0.002428 
0.002479 
0.002530 
0.002582 
0.002633 
0.002685 
0.002737 
0.002788 
0.002840 
0.002892 
0.002943 
0.002995 
0.003046 
0.003097 
0.003148 
0.003198 
0.003249 
0.003299 
0.003348 
0.003397 
0.003446 
0.003494 
0.003542 
0.003589 
0.003636 
0.003682 
0.003727 
0.003771 
0.003815 
0.003858 
0.003901 
0.003942 
0.003982 
0.004022 
0.004061 
0.004099 
0.004135 
0.004171 
0.004206 
0.004239 
0.004272 
0.004303 
0.004333 
0.004362 
0.004390 
0.004416 
0.004441 
0.004465 
0.004488 
0.004509 
0.004529 
0.004548 
0.004565 
0.004581 
0.004596 
0.004609 
0.004620 
0.004631 
0.004639 
0.004647 
0.004653 
0.004657 
0.004660 
0.004661 
0.000000 
0.000000 
0.000000 
0.000000 
0.000000 
0.000000 
0.000000 
0.000000 
0.000000 
0.000000 
0.000000 
0.000000 
0.000000 
0.000000 
0.000000 
0.000000 
0.000000 
0.000000 
0.000000 
0.000000 
0.000000 
0.000000 
0.000000 
0.000000 
0.000000 
0.000000 
0.000000 
0.000000 
0.000000 
0.000000 
0.000000 
0.000000 
0.000000 
0.000000 
0.000000 
0.000000 
0.000000 
0.000000 
0.000000 
0.000000 
0.000000 
0.000000 
0.000000 
0.000000 
0.000000 
0.000000 
0.000000 
0.000000 
0.000000 
0.000000 
0.000000 
0.000000 
0.000000 
0.000000 
0.000000 
0.000000 
0.000000 
0.000000 
0.000000 
0.000000 
0.000000 
0.000000 
0.000000 
0.000000 
0.000000 
0.000000 
0.000000 
0.000000 
0.000000 
0.000000 
0.000000 
0.000000 
0.000001 
0.000001 
0.000001 
0.000001 
0.000001 
0.000001 
0.000001 
0.000001 
0.000001 
0.000001 
0.000001 
0.000001 
0.000001 
0.000001 
0.000002 
0.000002 
0.000002 
0.000002 
0.000002 
0.000002 
0.000003 
0.000003 
0.000003 
0.000003 
0.000004 
0.000004 
0.000004 
0.000004 
0.000005 
0.000005 
0.000006 
0.000006 
0.000006 
0.000007 
0.000007 
0.000008 
0.000009 
0.000009 
0.000010 
0.000011 
0.000011 
0.000012 
0.000013 
0.000014 
0.000015 
0.000016 
0.000017 
0.000019 
0.000020 
0.000021 
0.000023 
0.000024 
0.000026 
0.000028 
0.000029 
0.000031 
0.000034 
0.000036 
0.000038 
0.000040 
0.000043 
0.000046 
0.000049 
0.000052 
0.000055 
0.000059 
0.000062 
0.000066 
0.000070 
0.000074 
0.000079 
0.000083 
0.000088 
0.000093 
0.000099 
0.000105 
0.000111 
0.000117 
0.000124 
0.000131 
0.000138 
0.000145 
0.000153 
0.000162 
0.000171 
0.000180 
0.000189 
0.000199 
0.000210 
0.000221 
0.000232 
0.000244 
0.000256 
0.000269 
0.000283 
0.000297 
0.000311 
0.000326 
0.000342 
0.000358 
0.000375 
0.000393 
0.000411 
0.000430 
0.000450 
0.000470 
0.000491 
0.000513 
0.000536 
0.000559 
0.000583 
0.000608 
0.000634 
0.000660 
0.000688 
0.000716 
0.000745 
0.000775 
0.000806 
0.000838 
0.000871 
0.000904 
0.000939 
0.000974 
0.001011 
0.001048 
0.001086 
0.001126 
0.001166 
0.001207 
0.001249 
0.001293 
0.001337 
0.001382 
0.001428 
0.001475 
0.001523 
0.001572 
0.001622 
0.001672 
0.001724 
0.001777 
0.001830 
0.001885 
0.001940 
0.001997 
0.002054 
0.002112 
0.002170 
0.002230 
0.002290 
0.002351 
0.002413 
0.002475 
0.002539 
0.002602 
0.002667 
0.002732 
0.002797 
0.002864 
0.002930 
0.002997 
0.003065 
0.003133 
0.003201 
0.003269 
0.003338 
0.003407 
0.003476 
0.003546 
0.003615 
0.003684 
0.003754 
0.003823 
0.003893 
0.003962 
0.004031 
0.004100 
0.004169 
0.004237 
0.004305 
0.004372 
0.004440 
0.004506 
0.004572 
0.004637 
0.004702 
0.004766 
0.004830 
0.004892 
0.004954 
0.005014 
0.005074 
0.005133 
0.005191 
0.005247 
0.005303 
0.005357 
0.005411 
0.005462 
0.005513 
0.005562 
0.005610 
0.005657 
0.005702 
0.005745 
0.005787 
0.005828 
0.005867 
0.005904 
0.005939 
0.005973 
0.006005 
0.006036 
0.006064 
0.006091 
0.006116 
0.006139 
0.006161 
0.006180 
0.006198 
0.006213 
0.006227 
0.006239 
0.006248 
0.006256 
0.006262 
0.006266 
0.006268 
0.000000 
0.000000 
0.000000 
0.000000 
0.000000 
0.000000 
0.000000 
0.000000 
0.000000 
0.000000 
0.000000 
0.000000 
0.000000 
0.000000 
0.000000 
0.000000 
0.000000 
0.000000 
0.000000 
0.000000 
0.000000 
0.000000 
0.000000 
0.000000 
0.000000 
0.000000 
0.000000 
0.000000 
0.000000 
0.000000 
0.000000 
0.000000 
0.000000 
0.000000 
0.000000 
0.000000 
0.000000 
0.000000 
0.000000 
0.000000 
0.000000 
0.000000 
0.000000 
0.000000 
0.000000 
0.000000 
0.000000 
0.000000 
0.000000 
0.000000 
0.000000 
0.000000 
0.000000 
0.000000 
0.000000 
0.000000 
0.000000 
0.000000 
0.000000 
0.000000 
0.000000 
0.000000 
0.000000 
0.000000 
0.000000 
0.000000 
0.000000 
0.000000 
0.000000 
0.000000 
0.000001 
0.000001 
0.000001 
0.000001 
0.000001 
0.000001 
0.000001 
0.000001 
0.000001 
0.000001 
0.000001 
0.000001 
0.000001 
0.000002 
0.000002 
0.000002 
0.000002 
0.000002 
0.000002 
0.000003 
0.000003 
0.000003 
0.000003 
0.000004 
0.000004 
0.000004 
0.000005 
0.000005 
0.000005 
0.000006 
0.000006 
0.000007 
0.000007 
0.000008 
0.000008 
0.000009 
0.000010 
0.000010 
0.000011 
0.000012 
0.000013 
0.000014 
0.000015 
0.000016 
0.000017 
0.000018 
0.000019 
0.000021 
0.000022 
0.000024 
0.000025 
0.000027 
0.000029 
0.000031 
0.000033 
0.000035 
0.000037 
0.000040 
0.000043 
0.000045 
0.000048 
0.000051 
0.000055 
0.000058 
0.000062 
0.000066 
0.000070 
0.000074 
0.000079 
0.000084 
0.000089 
0.000094 
0.000100 
0.000106 
0.000112 
0.000119 
0.000126 
0.000133 
0.000141 
0.000149 
0.000157 
0.000166 
0.000175 
0.000185 
0.000195 
0.000206 
0.000217 
0.000228 
0.000241 
0.000253 
0.000267 
0.000280 
0.000295 
0.000310 
0.000326 
0.000342 
0.000359 
0.000377 
0.000395 
0.000414 
0.000434 
0.000455 
0.000477 
0.000499 
0.000522 
0.000546 
0.000571 
0.000597 
0.000624 
0.000652 
0.000680 
0.000710 
0.000740 
0.000772 
0.000805 
0.000838 
0.000873 
0.000909 
0.000946 
0.000984 
0.001023 
0.001063 
0.001105 
0.001147 
0.001191 
0.001236 
0.001282 
0.001330 
0.001378 
0.001428 
0.001479 
0.001531 
0.001585 
0.001639 
0.001695 
0.001752 
0.001811 
0.001870 
0.001931 
0.001993 
0.002056 
0.002120 
0.002186 
0.002252 
0.002320 
0.002389 
0.002459 
0.002530 
0.002603 
0.002676 
0.002750 
0.002825 
0.002902 
0.002979 
0.003057 
0.003136 
0.003216 
0.003296 
0.003378 
0.003460 
0.003543 
0.003626 
0.003711 
0.003795 
0.003880 
0.003966 
0.004052 
0.004139 
0.004226 
0.004313 
0.004400 
0.004488 
0.004575 
0.004663 
0.004751 
0.004839 
0.004926 
0.005014 
0.005101 
0.005188 
0.005274 
0.005360 
0.005446 
0.005531 
0.005616 
0.005700 
0.005783 
0.005866 
0.005947 
0.006028 
0.006108 
0.006187 
0.006264 
0.006341 
0.006416 
0.006490 
0.006563 
0.006635 
0.006705 
0.006773 
0.006840 
0.006906 
0.006969 
0.007031 
0.007092 
0.007150 
0.007207 
0.007262 
0.007315 
0.007366 
0.007415 
0.007462 
0.007506 
0.007549 
0.007589 
0.007628 
0.007664 
0.007698 
0.007729 
0.007758 
0.007785 
0.007809 
0.007832 
0.007851 
0.007868 
0.007883 
0.007896 
0.007906 
0.007913 
0.007918 
0.007920 
0.000000 
0.000000 
0.000000 
0.000000 
0.000000 
0.000000 
0.000000 
0.000000 
0.000000 
0.000000 
0.000000 
0.000000 
0.000000 
0.000000 
0.000000 
0.000000 
0.000000 
0.000000 
0.000000 
0.000000 
0.000000 
0.000000 
0.000000 
0.000000 
0.000000 
0.000000 
0.000000 
0.000000 
0.000000 
0.000000 
0.000000 
0.000000 
0.000000 
0.000000 
0.000000 
0.000000 
0.000000 
0.000000 
0.000000 
0.000000 
0.000000 
0.000000 
0.000000 
0.000000 
0.000000 
0.000000 
0.000000 
0.000000 
0.000000 
0.000000 
0.000000 
0.000000 
0.000000 
0.000000 
0.000000 
0.000000 
0.000000 
0.000000 
0.000000 
0.000000 
0.000000 
0.000000 
0.000000 
0.000000 
0.000000 
0.000000 
0.000000 
0.000001 
0.000001 
0.000001 
0.000001 
0.000001 
0.000001 
0.000001 
0.000001 
0.000001 
0.000001 
0.000001 
0.000001 
0.000001 
0.000002 
0.000002 
0.000002 
0.000002 
0.000002 
0.000002 
0.000003 
0.000003 
0.000003 
0.000003 
0.000003 
0.000004 
0.000004 
0.000004 
0.000005 
0.000005 
0.000006 
0.000006 
0.000006 
0.000007 
0.000008 
0.000008 
0.000009 
0.000009 
0.000010 
0.000011 
0.000012 
0.000013 
0.000013 
0.000014 
0.000016 
0.000017 
0.000018 
0.000019 
0.000021 
0.000022 
0.000024 
0.000025 
0.000027 
0.000029 
0.000031 
0.000033 
0.000035 
0.000038 
0.000040 
0.000043 
0.000046 
0.000049 
0.000052 
0.000056 
0.000059 
0.000063 
0.000067 
0.000071 
0.000076 
0.000081 
0.000086 
0.000091 
0.000097 
0.000103 
0.000109 
0.000115 
0.000122 
0.000130 
0.000137 
0.000145 
0.000154 
0.000163 
0.000172 
0.000182 
0.000192 
0.000203 
0.000214 
0.000226 
0.000239 
0.000252 
0.000265 
0.000280 
0.000294 
0.000310 
0.000326 
0.000343 
0.000361 
0.000379 
0.000398 
0.000418 
0.000439 
0.000461 
0.000484 
0.000507 
0.000531 
0.000557 
0.000583 
0.000610 
0.000639 
0.000668 
0.000699 
0.000730 
0.000763 
0.000797 
0.000832 
0.000868 
0.000905 
0.000944 
0.000984 
0.001025 
0.001067 
0.001111 
0.001156 
0.001203 
0.001250 
0.001300 
0.001350 
0.001402 
0.001455 
0.001510 
0.001567 
0.001624 
0.001684 
0.001744 
0.001806 
0.001870 
0.001935 
0.002002 
0.002070 
0.002140 
0.002211 
0.002283 
0.002357 
0.002433 
0.002510 
0.002588 
0.002668 
0.002749 
0.002832 
0.002915 
0.003001 
0.003087 
0.003175 
0.003264 
0.003355 
0.003446 
0.003539 
0.003633 
0.003728 
0.003824 
0.003921 
0.004020 
0.004119 
0.004219 
0.004319 
0.004421 
0.004523 
0.004626 
0.004730 
0.004834 
0.004939 
0.005044 
0.005149 
0.005255 
0.005361 
0.005468 
0.005574 
0.005681 
0.005787 
0.005894 
0.006000 
0.006106 
0.006212 
0.006317 
0.006422 
0.006527 
0.006631 
0.006734 
0.006837 
0.006939 
0.007040 
0.007140 
0.007239 
0.007337 
0.007434 
0.007529 
0.007623 
0.007716 
0.007808 
0.007897 
0.007986 
0.008072 
0.008157 
0.008240 
0.008321 
0.008401 
0.008478 
0.008553 
0.008626 
0.008697 
0.008766 
0.008833 
0.008897 
0.008958 
0.009018 
0.009074 
0.009129 
0.009180 
0.009229 
0.009276 
0.009319 
0.009360 
0.009398 
0.009434 
0.009466 
0.009496 
0.009522 
0.009546 
0.009567 
0.009585 
0.009600 
0.009612 
0.009621 
0.009627 
0.009630 
0.000000 
0.000000 
0.000000 
0.000000 
0.000000 
0.000000 
0.000000 
0.000000 
0.000000 
0.000000 
0.000000 
0.000000 
0.000000 
0.000000 
0.000000 
0.000000 
0.000000 
0.000000 
0.000000 
0.000000 
0.000000 
0.000000 
0.000000 
0.000000 
0.000000 
0.000000 
0.000000 
0.000000 
0.000000 
0.000000 
0.000000 
0.000000 
0.000000 
0.000000 
0.000000 
0.000000 
0.000000 
0.000000 
0.000000 
0.000000 
0.000000 
0.000000 
0.000000 
0.000000 
0.000000 
0.000000 
0.000000 
0.000000 
0.000000 
0.000000 
0.000000 
0.000000 
0.000000 
0.000000 
0.000000 
0.000000 
0.000000 
0.000000 
0.000000 
0.000000 
0.000000 
0.000000 
0.000000 
0.000000 
0.000000 
0.000001 
0.000001 
0.000001 
0.000001 
0.000001 
0.000001 
0.000001 
0.000001 
0.000001 
0.000001 
0.000001 
0.000001 
0.000001 
0.000002 
0.000002 
0.000002 
0.000002 
0.000002 
0.000002 
0.000003 
0.000003 
0.000003 
0.000003 
0.000004 
0.000004 
0.000004 
0.000005 
0.000005 
0.000005 
0.000006 
0.000006 
0.000007 
0.000007 
0.000008 
0.000008 
0.000009 
0.000010 
0.000010 
0.000011 
0.000012 
0.000013 
0.000014 
0.000015 
0.000016 
0.000017 
0.000019 
0.000020 
0.000021 
0.000023 
0.000025 
0.000026 
0.000028 
0.000030 
0.000032 
0.000035 
0.000037 
0.000040 
0.000042 
0.000045 
0.000048 
0.000051 
0.000055 
0.000058 
0.000062 
0.000066 
0.000071 
0.000075 
0.000080 
0.000085 
0.000091 
0.000096 
0.000102 
0.000109 
0.000116 
0.000123 
0.000130 
0.000138 
0.000146 
0.000155 
0.000164 
0.000174 
0.000184 
0.000194 
0.000206 
0.000217 
0.000230 
0.000243 
0.000256 
0.000270 
0.000285 
0.000301 
0.000317 
0.000334 
0.000352 
0.000370 
0.000389 
0.000410 
0.000431 
0.000453 
0.000476 
0.000499 
0.000524 
0.000550 
0.000577 
0.000605 
0.000634 
0.000664 
0.000696 
0.000728 
0.000762 
0.000797 
0.000833 
0.000871 
0.000910 
0.000950 
0.000992 
0.001035 
0.001079 
0.001125 
0.001173 
0.001222 
0.001272 
0.001324 
0.001378 
0.001433 
0.001490 
0.001549 
0.001609 
0.001671 
0.001734 
0.001800 
0.001866 
0.001935 
0.002006 
0.002078 
0.002152 
0.002227 
0.002305 
0.002384 
0.002465 
0.002547 
0.002632 
0.002718 
0.002806 
0.002896 
0.002987 
0.003080 
0.003175 
0.003271 
0.003369 
0.003469 
0.003570 
0.003673 
0.003777 
0.003883 
0.003990 
0.004099 
0.004209 
0.004320 
0.004433 
0.004547 
0.004662 
0.004778 
0.004895 
0.005014 
0.005133 
0.005253 
0.005375 
0.005497 
0.005619 
0.005743 
0.005867 
0.005991 
0.006116 
0.006241 
0.006367 
0.006493 
0.006619 
0.006745 
0.006871 
0.006997 
0.007122 
0.007248 
0.007373 
0.007498 
0.007622 
0.007746 
0.007869 
0.007991 
0.008112 
0.008232 
0.008352 
0.008470 
0.008587 
0.008702 
0.008817 
0.008930 
0.009041 
0.009150 
0.009258 
0.009364 
0.009469 
0.009571 
0.009671 
0.009769 
0.009865 
0.009958 
0.010050 
0.010138 
0.010225 
0.010308 
0.010390 
0.010468 
0.010544 
0.010616 
0.010686 
0.010753 
0.010817 
0.010878 
0.010936 
0.010990 
0.011042 
0.011090 
0.011135 
0.011177 
0.011215 
0.011250 
0.011281 
0.011310 
0.011334 
0.011355 
0.011373 
0.011387 
0.011398 
0.011405 
0.011408 
0.000000 
0.000000 
0.000000 
0.000000 
0.000000 
0.000000 
0.000000 
0.000000 
0.000000 
0.000000 
0.000000 
0.000000 
0.000000 
0.000000 
0.000000 
0.000000 
0.000000 
0.000000 
0.000000 
0.000000 
0.000000 
0.000000 
0.000000 
0.000000 
0.000000 
0.000000 
0.000000 
0.000000 
0.000000 
0.000000 
0.000000 
0.000000 
0.000000 
0.000000 
0.000000 
0.000000 
0.000000 
0.000000 
0.000000 
0.000000 
0.000000 
0.000000 
0.000000 
0.000000 
0.000000 
0.000000 
0.000000 
0.000000 
0.000000 
0.000000 
0.000000 
0.000000 
0.000000 
0.000000 
0.000000 
0.000000 
0.000000 
0.000000 
0.000000 
0.000000 
0.000000 
0.000000 
0.000000 
0.000001 
0.000001 
0.000001 
0.000001 
0.000001 
0.000001 
0.000001 
0.000001 
0.000001 
0.000001 
0.000001 
0.000001 
0.000001 
0.000002 
0.000002 
0.000002 
0.000002 
0.000002 
0.000002 
0.000003 
0.000003 
0.000003 
0.000003 
0.000004 
0.000004 
0.000004 
0.000005 
0.000005 
0.000005 
0.000006 
0.000006 
0.000007 
0.000007 
0.000008 
0.000008 
0.000009 
0.000010 
0.000011 
0.000011 
0.000012 
0.000013 
0.000014 
0.000015 
0.000016 
0.000018 
0.000019 
0.000020 
0.000022 
0.000023 
0.000025 
0.000027 
0.000029 
0.000031 
0.000033 
0.000035 
0.000038 
0.000041 
0.000043 
0.000046 
0.000050 
0.000053 
0.000057 
0.000060 
0.000064 
0.000069 
0.000073 
0.000078 
0.000083 
0.000088 
0.000094 
0.000100 
0.000107 
0.000113 
0.000120 
0.000128 
0.000136 
0.000144 
0.000153 
0.000162 
0.000172 
0.000182 
0.000193 
0.000204 
0.000216 
0.000228 
0.000241 
0.000255 
0.000270 
0.000285 
0.000300 
0.000317 
0.000334 
0.000353 
0.000372 
0.000392 
0.000412 
0.000434 
0.000457 
0.000480 
0.000505 
0.000531 
0.000558 
0.000586 
0.000615 
0.000645 
0.000677 
0.000709 
0.000744 
0.000779 
0.000816 
0.000854 
0.000893 
0.000934 
0.000977 
0.001021 
0.001066 
0.001113 
0.001162 
0.001213 
0.001265 
0.001318 
0.001374 
0.001431 
0.001490 
0.001551 
0.001614 
0.001679 
0.001745 
0.001813 
0.001884 
0.001956 
0.002030 
0.002106 
0.002185 
0.002265 
0.002347 
0.002431 
0.002518 
0.002606 
0.002696 
0.002789 
0.002883 
0.002980 
0.003078 
0.003179 
0.003281 
0.003386 
0.003492 
0.003601 
0.003711 
0.003823 
0.003938 
0.004054 
0.004172 
0.004291 
0.004413 
0.004536 
0.004661 
0.004787 
0.004916 
0.005045 
0.005176 
0.005309 
0.005443 
0.005578 
0.005715 
0.005852 
0.005991 
0.006131 
0.006272 
0.006414 
0.006556 
0.006700 
0.006844 
0.006988 
0.007133 
0.007279 
0.007425 
0.007571 
0.007717 
0.007864 
0.008010 
0.008156 
0.008302 
0.008448 
0.008593 
0.008738 
0.008882 
0.009025 
0.009168 
0.009309 
0.009450 
0.009590 
0.009728 
0.009865 
0.010001 
0.010135 
0.010267 
0.010398 
0.010527 
0.010654 
0.010779 
0.010902 
0.011022 
0.011141 
0.011257 
0.011370 
0.011481 
0.011590 
0.011695 
0.011798 
0.011898 
0.011995 
0.012089 
0.012179 
0.012267 
0.012351 
0.012432 
0.012509 
0.012583 
0.012654 
0.012721 
0.012784 
0.012843 
0.012899 
0.012951 
0.012999 
0.013044 
0.013084 
0.013120 
0.013153 
0.013181 
0.013206 
0.013226 
0.013243 
0.013255 
0.013263 
0.013267 
0.000000 
0.000000 
0.000000 
0.000000 
0.000000 
0.000000 
0.000000 
0.000000 
0.000000 
0.000000 
0.000000 
0.000000 
0.000000 
0.000000 
0.000000 
0.000000 
0.000000 
0.000000 
0.000000 
0.000000 
0.000000 
0.000000 
0.000000 
0.000000 
0.000000 
0.000000 