# vtk DataFile Version 3.0
results.vtk
ASCII
DATASET RECTILINEAR_GRID
DIMENSIONS 301 301 1
X_COORDINATES 301 double
0.000000 0.003333 0.006667 0.010000 0.013333 0.016667 0.020000 0.023333 0.026667 0.030000 0.033333 0.036667 0.040000 0.043333 0.046667 0.050000 0.053333 0.056667 0.060000 0.063333 0.066667 0.070000 0.073333 0.076667 0.080000 0.083333 0.086667 0.090000 0.093333 0.096667 0.100000 0.103333 0.106667 0.110000 0.113333 0.116667 0.120000 0.123333 0.126667 0.130000 0.133333 0.136667 0.140000 0.143333 0.146667 0.150000 0.153333 0.156667 0.160000 0.163333 0.166667 0.170000 0.173333 0.176667 0.180000 0.183333 0.186667 0.190000 0.193333 0.196667 0.200000 0.203333 0.206667 0.210000 0.213333 0.216667 0.220000 0.223333 0.226667 0.230000 0.233333 0.236667 0.240000 0.243333 0.246667 0.250000 0.253333 0.256667 0.260000 0.263333 0.266667 0.270000 0.273333 0.276667 0.280000 0.283333 0.286667 0.290000 0.293333 0.296667 0.300000 0.303333 0.306667 0.310000 0.313333 0.316667 0.320000 0.323333 0.326667 0.330000 0.333333 0.336667 0.340000 0.343333 0.346667 0.350000 0.353333 0.356667 0.360000 0.363333 0.366667 0.370000 0.373333 0.376667 0.380000 0.383333 0.386667 0.390000 0.393333 0.396667 0.400000 0.403333 0.406667 0.410000 0.413333 0.416667 0.420000 0.423333 0.426667 0.430000 0.433333 0.436667 0.440000 0.443333 0.446667 0.450000 0.453333 0.456667 0.460000 0.463333 0.466667 0.470000 0.473333 0.476667 0.480000 0.483333 0.486667 0.490000 0.493333 0.496667 0.500000 0.503333 0.506667 0.510000 0.513333 0.516667 0.520000 0.523333 0.526667 0.530000 0.533333 0.536667 0.540000 0.543333 0.546667 0.550000 0.553333 0.556667 0.560000 0.563333 0.566667 0.570000 0.573333 0.576667 0.580000 0.583333 0.586667 0.590000 0.593333 0.596667 0.600000 0.603333 0.606667 0.610000 0.613333 0.616667 0.620000 0.623333 0.626667 0.630000 0.633333 0.636667 0.640000 0.643333 0.646667 0.650000 0.653333 0.656667 0.660000 0.663333 0.666667 0.670000 0.673333 0.676667 0.680000 0.683333 0.686667 0.690000 0.693333 0.696667 0.700000 0.703333 0.706667 0.710000 0.713333 0.716667 0.720000 0.723333 0.726667 0.730000 0.733333 0.736667 0.740000 0.743333 0.746667 0.750000 0.753333 0.756667 0.760000 0.763333 0.766667 0.770000 0.773333 0.776667 0.780000 0.783333 0.786667 0.790000 0.793333 0.796667 0.800000 0.803333 0.806667 0.810000 0.813333 0.816667 0.820000 0.823333 0.826667 0.830000 0.833333 0.836667 0.840000 0.843333 0.846667 0.850000 0.853333 0.856667 0.860000 0.863333 0.866667 0.870000 0.873333 0.876667 0.880000 0.883333 0.886667 0.890000 0.893333 0.896667 0.900000 0.903333 0.906667 0.910000 0.913333 0.916667 0.920000 0.923333 0.926667 0.930000 0.933333 0.936667 0.940000 0.943333 0.946667 0.950000 0.953333 0.956667 0.960000 0.963333 0.966667 0.970000 0.973333 0.976667 0.980000 0.983333 0.986667 0.990000 0.993333 0.996667 1.000000 
Y_COORDINATES 301 double
0.000000 0.003333 0.006667 0.010000 0.013333 0.016667 0.020000 0.023333 0.026667 0.030000 0.033333 0.036667 0.040000 0.043333 0.046667 0.050000 0.053333 0.056667 0.060000 0.063333 0.066667 0.070000 0.073333 0.076667 0.080000 0.083333 0.086667 0.090000 0.093333 0.096667 0.100000 0.103333 0.106667 0.110000 0.113333 0.116667 0.120000 0.123333 0.126667 0.130000 0.133333 0.136667 0.140000 0.143333 0.146667 0.150000 0.153333 0.156667 0.160000 0.163333 0.166667 0.170000 0.173333 0.176667 0.180000 0.183333 0.186667 0.190000 0.193333 0.196667 0.200000 0.203333 0.206667 0.210000 0.213333 0.216667 0.220000 0.223333 0.226667 0.230000 0.233333 0.236667 0.240000 0.243333 0.246667 0.250000 0.253333 0.256667 0.260000 0.263333 0.266667 0.270000 0.273333 0.276667 0.280000 0.283333 0.286667 0.290000 0.293333 0.296667 0.300000 0.303333 0.306667 0.310000 0.313333 0.316667 0.320000 0.323333 0.326667 0.330000 0.333333 0.336667 0.340000 0.343333 0.346667 0.350000 0.353333 0.356667 0.360000 0.363333 0.366667 0.370000 0.373333 0.376667 0.380000 0.383333 0.386667 0.390000 0.393333 0.396667 0.400000 0.403333 0.406667 0.410000 0.413333 0.416667 0.420000 0.423333 0.426667 0.430000 0.433333 0.436667 0.440000 0.443333 0.446667 0.450000 0.453333 0.456667 0.460000 0.463333 0.466667 0.470000 0.473333 0.476667 0.480000 0.483333 0.486667 0.490000 0.493333 0.496667 0.500000 0.503333 0.506667 0.510000 0.513333 0.516667 0.520000 0.523333 0.526667 0.530000 0.533333 0.536667 0.540000 0.543333 0.546667 0.550000 0.553333 0.556667 0.560000 0.563333 0.566667 0.570000 0.573333 0.576667 0.580000 0.583333 0.586667 0.590000 0.593333 0.596667 0.600000 0.603333 0.606667 0.610000 0.613333 0.616667 0.620000 0.623333 0.626667 0.630000 0.633333 0.636667 0.640000 0.643333 0.646667 0.650000 0.653333 0.656667 0.660000 0.663333 0.666667 0.670000 0.673333 0.676667 0.680000 0.683333 0.686667 0.690000 0.693333 0.696667 0.700000 0.703333 0.706667 0.710000 0.713333 0.716667 0.720000 0.723333 0.726667 0.730000 0.733333 0.736667 0.740000 0.743333 0.746667 0.750000 0.753333 0.756667 0.760000 0.763333 0.766667 0.770000 0.773333 0.776667 0.780000 0.783333 0.786667 0.790000 0.793333 0.796667 0.800000 0.803333 0.806667 0.810000 0.813333 0.816667 0.820000 0.823333 0.826667 0.830000 0.833333 0.836667 0.840000 0.843333 0.846667 0.850000 0.853333 0.856667 0.860000 0.863333 0.866667 0.870000 0.873333 0.876667 0.880000 0.883333 0.886667 0.890000 0.893333 0.896667 0.900000 0.903333 0.906667 0.910000 0.913333 0.916667 0.920000 0.923333 0.926667 0.930000 0.933333 0.936667 0.940000 0.943333 0.946667 0.950000 0.953333 0.956667 0.960000 0.963333 0.966667 0.970000 0.973333 0.976667 0.980000 0.983333 0.986667 0.990000 0.993333 0.996667 1.000000 
Z_COORDINATES 1 double
0
POINT_DATA 90601 
FIELD FieldData 1 
Concentração 1 90601 double 
0.000000 
0.000000 
0.000000 
0.000000 
0.000000 
0.000000 
0.000000 
0.000000 
0.000000 
0.000000 
0.000000 
0.000000 
0.000000 
0.000000 
0.000000 
0.000000 
0.000000 
0.000000 
0.000000 
0.000000 
0.000000 
0.000000 
0.000000 
0.000000 
0.000000 
0.000000 
0.000000 
0.000000 
0.000000 
0.000000 
0.000000 
0.000000 
0.000000 
0.000000 
0.000000 
0.000000 
0.000000 
0.000000 
0.000000 
0.000000 
0.000000 
0.000000 
0.000000 
0.000000 
0.000000 
0.000000 
0.000000 
0.000000 
0.000000 
0.000000 
0.000000 
0.000000 
0.000000 
0.000000 
0.000000 
0.000000 
0.000000 
0.000000 
0.000001 
0.000001 
0.000001 
0.000001 
0.000001 
0.000001 
0.000001 
0.000001 
0.000001 
0.000001 
0.000001 
0.000001 
0.000001 
0.000002 
0.000002 
0.000002 
0.000002 
0.000002 
0.000002 
0.000003 
0.000003 
0.000003 
0.000003 
0.000003 
0.000004 
0.000004 
0.000004 
0.000005 
0.000005 
0.000005 
0.000006 
0.000006 
0.000007 
0.000007 
0.000008 
0.000009 
0.000009 
0.000010 
0.000011 
0.000011 
0.000012 
0.000013 
0.000014 
0.000015 
0.000016 
0.000017 
0.000018 
0.000020 
0.000021 
0.000023 
0.000024 
0.000026 
0.000028 
0.000030 
0.000031 
0.000034 
0.000036 
0.000038 
0.000041 
0.000043 
0.000046 
0.000049 
0.000052 
0.000056 
0.000059 
0.000063 
0.000067 
0.000071 
0.000075 
0.000080 
0.000085 
0.000090 
0.000095 
0.000101 
0.000107 
0.000113 
0.000120 
0.000127 
0.000134 
0.000141 
0.000149 
0.000158 
0.000166 
0.000176 
0.000185 
0.000195 
0.000206 
0.000217 
0.000228 
0.000240 
0.000252 
0.000265 
0.000279 
0.000293 
0.000308 
0.000323 
0.000339 
0.000356 
0.000373 
0.000391 
0.000409 
0.000428 
0.000448 
0.000469 
0.000491 
0.000513 
0.000536 
0.000560 
0.000584 
0.000610 
0.000636 
0.000664 
0.000692 
0.000721 
0.000750 
0.000781 
0.000813 
0.000846 
0.000879 
0.000914 
0.000949 
0.000986 
0.001023 
0.001062 
0.001101 
0.001141 
0.001183 
0.001225 
0.001269 
0.001313 
0.001359 
0.001405 
0.001453 
0.001502 
0.001551 
0.001602 
0.001653 
0.001706 
0.001759 
0.001814 
0.001869 
0.001925 
0.001983 
0.002041 
0.002100 
0.002160 
0.002221 
0.002283 
0.002345 
0.002409 
0.002473 
0.002538 
0.002604 
0.002670 
0.002737 
0.002805 
0.002874 
0.002943 
0.003012 
0.003083 
0.003153 
0.003225 
0.003296 
0.003368 
0.003441 
0.003514 
0.003587 
0.003660 
0.003734 
0.003808 
0.003882 
0.003956 
0.004031 
0.004105 
0.004180 
0.004254 
0.004328 
0.004403 
0.004477 
0.004551 
0.004625 
0.004698 
0.004771 
0.004844 
0.004917 
0.004989 
0.005061 
0.005132 
0.005203 
0.005273 
0.005343 
0.005412 
0.005480 
0.005547 
0.005614 
0.005680 
0.005746 
0.005810 
0.005874 
0.005936 
0.005998 
0.006059 
0.006118 
0.006177 
0.006235 
0.006291 
0.006347 
0.006401 
0.006454 
0.006506 
0.006556 
0.006606 
0.006654 
0.006700 
0.006746 
0.006790 
0.006833 
0.006874 
0.006914 
0.006952 
0.006989 
0.007025 
0.007059 
0.007091 
0.007122 
0.007151 
0.007179 
0.007205 
0.007230 
0.007253 
0.007275 
0.007295 
0.007313 
0.007330 
0.007345 
0.007358 
0.007370 
0.007380 
0.007388 
0.007395 
0.007400 
0.007403 
0.007405 
0.000000 
0.000000 
0.000000 
0.000000 
0.000000 
0.000000 
0.000000 
0.000000 
0.000000 
0.000000 
0.000000 
0.000000 
0.000000 
0.000000 
0.000000 
0.000000 
0.000000 
0.000000 
0.000000 
0.000000 
0.000000 
0.000000 
0.000000 
0.000000 
0.000000 
0.000000 
0.000000 
0.000000 
0.000000 
0.000000 
0.000000 
0.000000 
0.000000 
0.000000 
0.000000 
0.000000 
0.000000 
0.000000 
0.000000 
0.000000 
0.000000 
0.000000 
0.000000 
0.000000 
0.000000 
0.000000 
0.000000 
0.000000 
0.000000 
0.000000 
0.000001 
0.000001 
0.000001 
0.000001 
0.000001 
0.000001 
0.000001 
0.000001 
0.000001 
0.000001 
0.000001 
0.000001 
0.000001 
0.000002 
0.000002 
0.000002 
0.000002 
0.000002 
0.000002 
0.000003 
0.000003 
0.000003 
0.000003 
0.000004 
0.000004 
0.000004 
0.000005 
0.000005 
0.000006 
0.000006 
0.000006 
0.000007 
0.000008 
0.000008 
0.000009 
0.000009 
0.000010 
0.000011 
0.000012 
0.000013 
0.000014 
0.000015 
0.000016 
0.000017 
0.000018 
0.000020 
0.000021 
0.000023 
0.000024 
0.000026 
0.000028 
0.000030 
0.000032 
0.000035 
0.000037 
0.000040 
0.000043 
0.000045 
0.000049 
0.000052 
0.000056 
0.000059 
0.000063 
0.000068 
0.000072 
0.000077 
0.000082 
0.000087 
0.000093 
0.000099 
0.000105 
0.000112 
0.000119 
0.000126 
0.000134 
0.000143 
0.000151 
0.000161 
0.000170 
0.000181 
0.000191 
0.000203 
0.000215 
0.000227 
0.000240 
0.000254 
0.000269 
0.000284 
0.000300 
0.000317 
0.000334 
0.000353 
0.000372 
0.000392 
0.000413 
0.000435 
0.000458 
0.000482 
0.000507 
0.000533 
0.000560 
0.000589 
0.000618 
0.000649 
0.000681 
0.000714 
0.000749 
0.000785 
0.000822 
0.000861 
0.000901 
0.000942 
0.000985 
0.001030 
0.001076 
0.001124 
0.001174 
0.001225 
0.001278 
0.001332 
0.001388 
0.001447 
0.001506 
0.001568 
0.001632 
0.001697 
0.001765 
0.001834 
0.001905 
0.001978 
0.002053 
0.002131 
0.002210 
0.002291 
0.002374 
0.002459 
0.002546 
0.002635 
0.002727 
0.002820 
0.002915 
0.003012 
0.003112 
0.003213 
0.003316 
0.003422 
0.003529 
0.003638 
0.003749 
0.003862 
0.003977 
0.004093 
0.004212 
0.004332 
0.004454 
0.004578 
0.004703 
0.004830 
0.004958 
0.005089 
0.005220 
0.005353 
0.005488 
0.005623 
0.005760 
0.005898 
0.006038 
0.006178 
0.006320 
0.006462 
0.006606 
0.006750 
0.006895 
0.007041 
0.007187 
0.007334 
0.007481 
0.007629 
0.007778 
0.007926 
0.008075 
0.008223 
0.008372 
0.008521 
0.008670 
0.008818 
0.008967 
0.009114 
0.009262 
0.009409 
0.009555 
0.009701 
0.009846 
0.009990 
0.010133 
0.010276 
0.010417 
0.010557 
0.010696 
0.010834 
0.010970 
0.011105 
0.011239 
0.011371 
0.011501 
0.011630 
0.011757 
0.011882 
0.012005 
0.012126 
0.012245 
0.012363 
0.012478 
0.012590 
0.012701 
0.012809 
0.012915 
0.013019 
0.013120 
0.013218 
0.013314 
0.013407 
0.013498 
0.013586 
0.013671 
0.013753 
0.013833 
0.013910 
0.013983 
0.014054 
0.014122 
0.014187 
0.014248 
0.014307 
0.014363 
0.014415 
0.014464 
0.014510 
0.014553 
0.014593 
0.014629 
0.014663 
0.014693 
0.014719 
0.014742 
0.014762 
0.014779 
0.014792 
0.014803 
0.014809 
0.014813 
0.000000 
0.000000 
0.000000 
0.000000 
0.000000 
0.000000 
0.000000 
0.000000 
0.000000 
0.000000 
0.000000 
0.000000 
0.000000 
0.000000 
0.000000 
0.000000 
0.000000 
0.000000 
0.000000 
0.000000 
0.000000 
0.000000 
0.000000 
0.000000 
0.000000 
0.000000 
0.000000 
0.000000 
0.000000 
0.000000 
0.000000 
0.000000 
0.000000 
0.000000 
0.000000 
0.000000 
0.000000 
0.000000 
0.000000 
0.000000 
0.000000 
0.000000 
0.000000 
0.000000 
0.000000 
0.000001 
0.000001 
0.000001 
0.000001 
0.000001 
0.000001 
0.000001 
0.000001 
0.000001 
0.000001 
0.000001 
0.000001 
0.000001 
0.000002 
0.000002 
0.000002 
0.000002 
0.000002 
0.000002 
0.000003 
0.000003 
0.000003 
0.000003 
0.000004 
0.000004 
0.000004 
0.000005 
0.000005 
0.000006 
0.000006 
0.000007 
0.000007 
0.000008 
0.000008 
0.000009 
0.000010 
0.000011 
0.000011 
0.000012 
0.000013 
0.000014 
0.000015 
0.000017 
0.000018 
0.000019 
0.000021 
0.000022 
0.000024 
0.000026 
0.000028 
0.000030 
0.000032 
0.000034 
0.000037 
0.000040 
0.000043 
0.000046 
0.000049 
0.000052 
0.000056 
0.000060 
0.000064 
0.000069 
0.000074 
0.000079 
0.000084 
0.000090 
0.000096 
0.000102 
0.000109 
0.000116 
0.000124 
0.000132 
0.000140 
0.000150 
0.000159 
0.000169 
0.000180 
0.000191 
0.000203 
0.000216 
0.000229 
0.000243 
0.000258 
0.000273 
0.000289 
0.000307 
0.000325 
0.000344 
0.000363 
0.000384 
0.000406 
0.000429 
0.000454 
0.000479 
0.000505 
0.000533 
0.000562 
0.000593 
0.000624 
0.000657 
0.000692 
0.000728 
0.000766 
0.000806 
0.000847 
0.000889 
0.000934 
0.000980 
0.001029 
0.001079 
0.001131 
0.001185 
0.001241 
0.001300 
0.001360 
0.001423 
0.001488 
0.001555 
0.001625 
0.001697 
0.001772 
0.001849 
0.001929 
0.002011 
0.002096 
0.002184 
0.002274 
0.002367 
0.002463 
0.002561 
0.002663 
0.002767 
0.002875 
0.002985 
0.003098 
0.003214 
0.003334 
0.003456 
0.003581 
0.003709 
0.003840 
0.003975 
0.004112 
0.004252 
0.004396 
0.004542 
0.004692 
0.004844 
0.004999 
0.005158 
0.005319 
0.005483 
0.005650 
0.005820 
0.005993 
0.006168 
0.006346 
0.006527 
0.006710 
0.006896 
0.007085 
0.007276 
0.007469 
0.007664 
0.007862 
0.008062 
0.008264 
0.008467 
0.008673 
0.008881 
0.009090 
0.009301 
0.009513 
0.009727 
0.009942 
0.010159 
0.010377 
0.010595 
0.010815 
0.011035 
0.011256 
0.011478 
0.011700 
0.011923 
0.012146 
0.012369 
0.012592 
0.012815 
0.013038 
0.013261 
0.013483 
0.013704 
0.013925 
0.014146 
0.014365 
0.014583 
0.014800 
0.015016 
0.015231 
0.015444 
0.015656 
0.015866 
0.016074 
0.016280 
0.016484 
0.016686 
0.016886 
0.017083 
0.017278 
0.017471 
0.017661 
0.017848 
0.018032 
0.018214 
0.018392 
0.018567 
0.018739 
0.018908 
0.019073 
0.019235 
0.019393 
0.019548 
0.019699 
0.019846 
0.019990 
0.020129 
0.020265 
0.020396 
0.020523 
0.020646 
0.020765 
0.020880 
0.020990 
0.021096 
0.021197 
0.021294 
0.021386 
0.021474 
0.021557 
0.021635 
0.021709 
0.021778 
0.021842 
0.021901 
0.021956 
0.022005 
0.022050 
0.022090 
0.022124 
0.022154 
0.022179 
0.022199 
0.022214 
0.022224 
0.022229 
0.000000 
0.000000 
0.000000 
0.000000 
0.000000 
0.000000 
0.000000 
0.000000 
0.000000 
0.000000 
0.000000 
0.000000 
0.000000 
0.000000 
0.000000 
0.000000 
0.000000 
0.000000 
0.000000 
0.000000 
0.000000 
0.000000 
0.000000 
0.000000 
0.000000 
0.000000 
0.000000 
0.000000 
0.000000 
0.000000 
0.000000 
0.000000 
0.000000 
0.000000 
0.000000 
0.000000 
0.000000 
0.000000 
0.000000 
0.000000 
0.000000 
0.000000 
0.000001 
0.000001 
0.000001 
0.000001 
0.000001 
0.000001 
0.000001 
0.000001 
0.000001 
0.000001 
0.000001 
0.000001 
0.000002 
0.000002 
0.000002 
0.000002 
0.000002 
0.000002 
0.000003 
0.000003 
0.000003 
0.000003 
0.000004 
0.000004 
0.000004 
0.000005 
0.000005 
0.000005 
0.000006 
0.000006 
0.000007 
0.000008 
0.000008 
0.000009 
0.000010 
0.000010 
0.000011 
0.000012 
0.000013 
0.000014 
0.000015 
0.000017 
0.000018 
0.000019 
0.000021 
0.000022 
0.000024 
0.000026 
0.000028 
0.000030 
0.000032 
0.000035 
0.000038 
0.000040 
0.000043 
0.000047 
0.000050 
0.000054 
0.000057 
0.000062 
0.000066 
0.000071 
0.000076 
0.000081 
0.000087 
0.000093 
0.000099 
0.000106 
0.000113 
0.000121 
0.000129 
0.000138 
0.000147 
0.000157 
0.000167 
0.000178 
0.000189 
0.000202 
0.000215 
0.000228 
0.000243 
0.000258 
0.000274 
0.000291 
0.000309 
0.000327 
0.000347 
0.000368 
0.000390 
0.000413 
0.000438 
0.000463 
0.000490 
0.000518 
0.000548 
0.000579 
0.000611 
0.000645 
0.000681 
0.000718 
0.000757 
0.000798 
0.000841 
0.000886 
0.000932 
0.000981 
0.001032 
0.001085 
0.001140 
0.001198 
0.001258 
0.001320 
0.001385 
0.001452 
0.001523 
0.001595 
0.001671 
0.001750 
0.001831 
0.001915 
0.002003 
0.002093 
0.002187 
0.002284 
0.002384 
0.002488 
0.002595 
0.002705 
0.002820 
0.002937 
0.003058 
0.003183 
0.003312 
0.003444 
0.003581 
0.003721 
0.003865 
0.004013 
0.004165 
0.004321 
0.004480 
0.004644 
0.004812 
0.004984 
0.005160 
0.005340 
0.005524 
0.005712 
0.005904 
0.006100 
0.006301 
0.006505 
0.006713 
0.006925 
0.007141 
0.007361 
0.007584 
0.007812 
0.008043 
0.008277 
0.008516 
0.008758 
0.009003 
0.009251 
0.009503 
0.009758 
0.010017 
0.010278 
0.010542 
0.010809 
0.011079 
0.011351 
0.011626 
0.011903 
0.012182 
0.012464 
0.012748 
0.013033 
0.013320 
0.013609 
0.013900 
0.014191 
0.014484 
0.014778 
0.015073 
0.015369 
0.015665 
0.015962 
0.016259 
0.016556 
0.016854 
0.017151 
0.017448 
0.017744 
0.018040 
0.018335 
0.018629 
0.018923 
0.019214 
0.019505 
0.019794 
0.020081 
0.020367 
0.020651 
0.020932 
0.021211 
0.021488 
0.021762 
0.022034 
0.022302 
0.022568 
0.022831 
0.023090 
0.023346 
0.023598 
0.023847 
0.024091 
0.024332 
0.024569 
0.024802 
0.025031 
0.025255 
0.025474 
0.025689 
0.025899 
0.026105 
0.026305 
0.026501 
0.026691 
0.026876 
0.027056 
0.027230 
0.027399 
0.027563 
0.027720 
0.027872 
0.028019 
0.028159 
0.028293 
0.028422 
0.028544 
0.028660 
0.028771 
0.028874 
0.028972 
0.029063 
0.029148 
0.029227 
0.029299 
0.029365 
0.029424 
0.029477 
0.029523 
0.029563 
0.029596 
0.029622 
0.029642 
0.029655 
0.029662 
0.000000 
0.000000 
0.000000 
0.000000 
0.000000 
0.000000 
0.000000 
0.000000 
0.000000 
0.000000 
0.000000 
0.000000 
0.000000 
0.000000 
0.000000 
0.000000 
0.000000 
0.000000 
0.000000 
0.000000 
0.000000 
0.000000 
0.000000 
0.000000 
0.000000 
0.000000 
0.000000 
0.000000 
0.000000 
0.000000 
0.000000 
0.000000 
0.000000 
0.000000 
0.000000 
0.000000 
0.000000 
0.000000 
0.000000 
0.000001 
0.000001 
0.000001 
0.000001 
0.000001 
0.000001 
0.000001 
0.000001 
0.000001 
0.000001 
0.000001 
0.000001 
0.000002 
0.000002 
0.000002 
0.000002 
0.000002 
0.000002 
0.000003 
0.000003 
0.000003 
0.000003 
0.000004 
0.000004 
0.000004 
0.000005 
0.000005 
0.000005 
0.000006 
0.000006 
0.000007 
0.000008 
0.000008 
0.000009 
0.000010 
0.000010 
0.000011 
0.000012 
0.000013 
0.000014 
0.000015 
0.000017 
0.000018 
0.000019 
0.000021 
0.000023 
0.000024 
0.000026 
0.000028 
0.000031 
0.000033 
0.000036 
0.000038 
0.000041 
0.000044 
0.000048 
0.000051 
0.000055 
0.000059 
0.000063 
0.000068 
0.000073 
0.000078 
0.000084 
0.000090 
0.000096 
0.000103 
0.000110 
0.000118 
0.000126 
0.000134 
0.000144 
0.000153 
0.000164 
0.000175 
0.000186 
0.000199 
0.000212 
0.000226 
0.000240 
0.000256 
0.000272 
0.000289 
0.000308 
0.000327 
0.000347 
0.000369 
0.000391 
0.000415 
0.000440 
0.000467 
0.000494 
0.000524 
0.000554 
0.000587 
0.000621 
0.000656 
0.000694 
0.000733 
0.000774 
0.000817 
0.000863 
0.000910 
0.000959 
0.001011 
0.001065 
0.001122 
0.001181 
0.001242 
0.001307 
0.001374 
0.001444 
0.001516 
0.001592 
0.001671 
0.001753 
0.001838 
0.001927 
0.002019 
0.002115 
0.002214 
0.002317 
0.002423 
0.002534 
0.002648 
0.002766 
0.002889 
0.003015 
0.003146 
0.003281 
0.003421 
0.003564 
0.003713 
0.003866 
0.004023 
0.004186 
0.004353 
0.004524 
0.004701 
0.004883 
0.005069 
0.005260 
0.005457 
0.005658 
0.005864 
0.006076 
0.006292 
0.006514 
0.006740 
0.006972 
0.007208 
0.007450 
0.007697 
0.007949 
0.008205 
0.008467 
0.008733 
0.009005 
0.009281 
0.009562 
0.009848 
0.010138 
0.010432 
0.010732 
0.011035 
0.011343 
0.011655 
0.011971 
0.012291 
0.012615 
0.012942 
0.013273 
0.013608 
0.013946 
0.014287 
0.014632 
0.014979 
0.015329 
0.015682 
0.016037 
0.016394 
0.016754 
0.017115 
0.017478 
0.017843 
0.018210 
0.018577 
0.018946 
0.019316 
0.019686 
0.020057 
0.020428 
0.020800 
0.021171 
0.021543 
0.021913 
0.022283 
0.022653 
0.023021 
0.023388 
0.023754 
0.024118 
0.024481 
0.024841 
0.025200 
0.025556 
0.025909 
0.026260 
0.026608 
0.026953 
0.027295 
0.027633 
0.027968 
0.028299 
0.028626 
0.028948 
0.029267 
0.029581 
0.029891 
0.030195 
0.030495 
0.030790 
0.031080 
0.031364 
0.031643 
0.031916 
0.032183 
0.032445 
0.032700 
0.032950 
0.033193 
0.033429 
0.033659 
0.033883 
0.034099 
0.034309 
0.034512 
0.034708 
0.034897 
0.035079 
0.035253 
0.035420 
0.035580 
0.035732 
0.035876 
0.036013 
0.036142 
0.036264 
0.036377 
0.036483 
0.036580 
0.036670 
0.036751 
0.036825 
0.036890 
0.036948 
0.036997 
0.037038 
0.037071 
0.037096 
0.037112 
0.037120 
0.000000 
0.000000 
0.000000 
0.000000 
0.000000 
0.000000 
0.000000 
0.000000 
0.000000 
0.000000 
0.000000 
0.000000 
0.000000 
0.000000 
0.000000 
0.000000 
0.000000 
0.000000 
0.000000 
0.000000 
0.000000 
0.000000 
0.000000 
0.000000 
0.000000 
0.000000 
0.000000 
0.000000 
0.000000 
0.000000 
0.000000 
0.000000 
0.000000 
0.000000 
0.000000 
0.000000 
0.000000 
0.000001 
0.000001 
0.000001 
0.000001 
0.000001 
0.000001 
0.000001 
0.000001 
0.000001 
0.000001 
0.000001 
0.000001 
0.000002 
0.000002 
0.000002 
0.000002 
0.000002 
0.000002 
0.000003 
0.000003 
0.000003 
0.000003 
0.000004 
0.000004 
0.000004 
0.000005 
0.000005 
0.000006 
0.000006 
0.000007 
0.000007 
0.000008 
0.000008 
0.000009 
0.000010 
0.000011 
0.000012 
0.000013 
0.000014 
0.000015 
0.000016 
0.000017 
0.000019 
0.000020 
0.000022 
0.000024 
0.000026 
0.000028 
0.000030 
0.000032 
0.000035 
0.000037 
0.000040 
0.000043 
0.000047 
0.000050 
0.000054 
0.000058 
0.000063 
0.000067 
0.000072 
0.000077 
0.000083 
0.000089 
0.000096 
0.000102 
0.000110 
0.000117 
0.000126 
0.000134 
0.000144 
0.000154 
0.000164 
0.000175 
0.000187 
0.000200 
0.000213 
0.000228 
0.000243 
0.000259 
0.000275 
0.000293 
0.000312 
0.000332 
0.000353 
0.000375 
0.000399 
0.000424 
0.000450 
0.000478 
0.000507 
0.000537 
0.000569 
0.000603 
0.000639 
0.000677 
0.000716 
0.000757 
0.000801 
0.000847 
0.000894 
0.000944 
0.000997 
0.001052 
0.001110 
0.001170 
0.001233 
0.001299 
0.001368 
0.001440 
0.001515 
0.001593 
0.001674 
0.001759 
0.001848 
0.001940 
0.002036 
0.002136 
0.002240 
0.002347 
0.002459 
0.002575 
0.002696 
0.002821 
0.002950 
0.003085 
0.003224 
0.003367 
0.003516 
0.003670 
0.003828 
0.003992 
0.004162 
0.004336 
0.004516 
0.004702 
0.004893 
0.005090 
0.005292 
0.005501 
0.005715 
0.005935 
0.006161 
0.006392 
0.006630 
0.006874 
0.007124 
0.007380 
0.007642 
0.007910 
0.008184 
0.008464 
0.008750 
0.009043 
0.009341 
0.009645 
0.009956 
0.010272 
0.010594 
0.010922 
0.011255 
0.011594 
0.011939 
0.012289 
0.012645 
0.013006 
0.013372 
0.013743 
0.014119 
0.014500 
0.014886 
0.015276 
0.015671 
0.016070 
0.016473 
0.016880 
0.017290 
0.017705 
0.018122 
0.018544 
0.018968 
0.019395 
0.019824 
0.020257 
0.020691 
0.021128 
0.021566 
0.022006 
0.022447 
0.022890 
0.023334 
0.023778 
0.024224 
0.024669 
0.025114 
0.025560 
0.026005 
0.026449 
0.026893 
0.027336 
0.027777 
0.028217 
0.028655 
0.029091 
0.029525 
0.029957 
0.030385 
0.030812 
0.031235 
0.031654 
0.032071 
0.032483 
0.032892 
0.033296 
0.033696 
0.034091 
0.034482 
0.034868 
0.035248 
0.035624 
0.035993 
0.036357 
0.036715 
0.037067 
0.037413 
0.037752 
0.038085 
0.038411 
0.038730 
0.039042 
0.039346 
0.039644 
0.039933 
0.040216 
0.040490 
0.040756 
0.041015 
0.041265 
0.041507 
0.041741 
0.041966 
0.042182 
0.042390 
0.042589 
0.042779 
0.042960 
0.043132 
0.043295 
0.043449 
0.043593 
0.043728 
0.043854 
0.043970 
0.044077 
0.044174 
0.044262 
0.044340 
0.044408 
0.044467 
0.044516 
0.044555 
0.044584 
0.044604 
0.044613 
0.000000 
0.000000 
0.000000 
0.000000 
0.000000 
0.000000 
0.000000 
0.000000 
0.000000 
0.000000 
0.000000 
0.000000 
0.000000 
0.000000 
0.000000 
0.000000 
0.000000 
0.000000 
0.000000 
0.000000 
0.000000 
0.000000 
0.000000 
0.000000 
0.000000 
0.000000 
0.000000 
0.000000 
0.000000 
0.000000 
0.000000 
0.000000 
0.000000 
0.000000 
0.000000 
0.000001 
0.000001 
0.000001 
0.000001 
0.000001 
0.000001 
0.000001 
0.000001 
0.000001 
0.000001 
0.000001 
0.000001 
0.000002 
0.000002 
0.000002 
0.000002 
0.000002 
0.000002 
0.000003 
0.000003 
0.000003 
0.000003 
0.000004 
0.000004 
0.000004 
0.000005 
0.000005 
0.000006 
0.000006 
0.000007 
0.000007 
0.000008 
0.000009 
0.000009 
0.000010 
0.000011 
0.000012 
0.000013 
0.000014 
0.000015 
0.000016 
0.000018 
0.000019 
0.000021 
0.000023 
0.000024 
0.000026 
0.000028 
0.000031 
0.000033 
0.000036 
0.000038 
0.000041 
0.000045 
0.000048 
0.000052 
0.000056 
0.000060 
0.000065 
0.000069 
0.000075 
0.000080 
0.000086 
0.000092 
0.000099 
0.000106 
0.000114 
0.000122 
0.000131 
0.000140 
0.000150 
0.000160 
0.000171 
0.000183 
0.000196 
0.000209 
0.000223 
0.000238 
0.000254 
0.000271 
0.000289 
0.000308 
0.000328 
0.000349 
0.000372 
0.000395 
0.000420 
0.000447 
0.000475 
0.000504 
0.000536 
0.000568 
0.000603 
0.000639 
0.000678 
0.000718 
0.000760 
0.000805 
0.000852 
0.000901 
0.000953 
0.001007 
0.001064 
0.001123 
0.001186 
0.001251 
0.001319 
0.001391 
0.001466 
0.001544 
0.001626 
0.001711 
0.001800 
0.001893 
0.001989 
0.002090 
0.002195 
0.002305 
0.002418 
0.002537 
0.002659 
0.002787 
0.002920 
0.003057 
0.003200 
0.003348 
0.003501 
0.003660 
0.003825 
0.003995 
0.004171 
0.004353 
0.004540 
0.004734 
0.004934 
0.005141 
0.005354 
0.005573 
0.005799 
0.006031 
0.006270 
0.006516 
0.006769 
0.007029 
0.007295 
0.007569 
0.007849 
0.008137 
0.008431 
0.008733 
0.009042 
0.009357 
0.009680 
0.010010 
0.010347 
0.010692 
0.011043 
0.011401 
0.011766 
0.012138 
0.012516 
0.012902 
0.013294 
0.013692 
0.014097 
0.014509 
0.014926 
0.015350 
0.015780 
0.016215 
0.016656 
0.017103 
0.017556 
0.018013 
0.018476 
0.018943 
0.019415 
0.019892 
0.020373 
0.020858 
0.021347 
0.021840 
0.022336 
0.022835 
0.023338 
0.023843 
0.024351 
0.024861 
0.025373 
0.025887 
0.026402 
0.026919 
0.027437 
0.027956 
0.028475 
0.028995 
0.029514 
0.030033 
0.030552 
0.031070 
0.031587 
0.032103 
0.032617 
0.033129 
0.033639 
0.034147 
0.034652 
0.035154 
0.035653 
0.036148 
0.036640 
0.037128 
0.037612 
0.038091 
0.038566 
0.039036 
0.039500 
0.039960 
0.040413 
0.040861 
0.041303 
0.041738 
0.042167 
0.042589 
0.043005 
0.043413 
0.043814 
0.044207 
0.044593 
0.044971 
0.045341 
0.045702 
0.046055 
0.046400 
0.046735 
0.047062 
0.047380 
0.047688 
0.047988 
0.048277 
0.048558 
0.048828 
0.049088 
0.049339 
0.049579 
0.049810 
0.050030 
0.050239 
0.050438 
0.050627 
0.050805 
0.050972 
0.051128 
0.051273 
0.051408 
0.051531 
0.051644 
0.051745 
0.051835 
0.051914 
0.051982 
0.052038 
0.052084 
0.052117 
0.052140 
0.052151 
0.000000 
0.000000 
0.000000 
0.000000 
0.000000 
0.000000 
0.000000 
0.000000 
0.000000 
0.000000 
0.000000 
0.000000 
0.000000 
0.000000 
0.000000 
0.000000 
0.000000 
0.000000 
0.000000 
0.000000 
0.000000 
0.000000 
0.000000 
0.000000 
0.000000 
0.000000 
0.000000 
0.000000 
0.000000 
0.000000 
0.000000 
0.000000 
0.000000 
0.000000 
0.000001 
0.000001 
0.000001 
0.000001 
0.000001 
0.000001 
0.000001 
0.000001 
0.000001 
0.000001 
0.000001 
0.000001 
0.000002 
0.000002 
0.000002 
0.000002 
0.000002 
0.000003 
0.000003 
0.000003 
0.000003 
0.000004 
0.000004 
0.000004 
0.000005 
0.000005 
0.000006 
0.000006 
0.000007 
0.000007 
0.000008 
0.000009 
0.000009 
0.000010 
0.000011 
0.000012 
0.000013 
0.000014 
0.000015 
0.000016 
0.000018 
0.000019 
0.000021 
0.000023 
0.000024 
0.000026 
0.000028 
0.000031 
0.000033 
0.000036 
0.000039 
0.000042 
0.000045 
0.000049 
0.000052 
0.000056 
0.000061 
0.000065 
0.000070 
0.000076 
0.000081 
0.000087 
0.000094 
0.000101 
0.000108 
0.000116 
0.000124 
0.000133 
0.000143 
0.000153 
0.000164 
0.000175 
0.000187 
0.000200 
0.000214 
0.000229 
0.000245 
0.000261 
0.000279 
0.000297 
0.000317 
0.000338 
0.000360 
0.000384 
0.000408 
0.000435 
0.000462 
0.000492 
0.000523 
0.000555 
0.000590 
0.000626 
0.000664 
0.000705 
0.000747 
0.000792 
0.000839 
0.000889 
0.000941 
0.000995 
0.001053 
0.001113 
0.001176 
0.001243 
0.001312 
0.001385 
0.001461 
0.001541 
0.001624 
0.001711 
0.001802 
0.001898 
0.001997 
0.002101 
0.002209 
0.002321 
0.002439 
0.002561 
0.002688 
0.002821 
0.002958 
0.003101 
0.003250 
0.003404 
0.003564 
0.003730 
0.003902 
0.004080 
0.004265 
0.004456 
0.004653 
0.004858 
0.005069 
0.005287 
0.005512 
0.005744 
0.005983 
0.006230 
0.006485 
0.006746 
0.007016 
0.007293 
0.007578 
0.007871 
0.008171 
0.008480 
0.008796 
0.009121 
0.009454 
0.009794 
0.010143 
0.010500 
0.010865 
0.011238 
0.011620 
0.012009 
0.012406 
0.012812 
0.013225 
0.013646 
0.014075 
0.014512 
0.014956 
0.015408 
0.015867 
0.016334 
0.016807 
0.017288 
0.017776 
0.018270 
0.018771 
0.019279 
0.019793 
0.020313 
0.020838 
0.021370 
0.021907 
0.022449 
0.022996 
0.023548 
0.024105 
0.024666 
0.025231 
0.025799 
0.026372 
0.026948 
0.027526 
0.028108 
0.028692 
0.029278 
0.029866 
0.030456 
0.031047 
0.031640 
0.032233 
0.032826 
0.033420 
0.034013 
0.034606 
0.035199 
0.035790 
0.036380 
0.036968 
0.037554 
0.038138 
0.038720 
0.039299 
0.039874 
0.040446 
0.041015 
0.041579 
0.042139 
0.042695 
0.043245 
0.043791 
0.044331 
0.044865 
0.045394 
0.045916 
0.046432 
0.046941 
0.047443 
0.047938 
0.048425 
0.048905 
0.049376 
0.049840 
0.050295 
0.050741 
0.051179 
0.051608 
0.052027 
0.052437 
0.052838 
0.053229 
0.053609 
0.053980 
0.054340 
0.054690 
0.055029 
0.055357 
0.055675 
0.055981 
0.056276 
0.056560 
0.056832 
0.057093 
0.057342 
0.057580 
0.057805 
0.058018 
0.058220 
0.058409 
0.058586 
0.058750 
0.058903 
0.059042 
0.059169 
0.059284 
0.059386 
0.059475 
0.059552 
0.059616 
0.059667 
0.059706 
0.059731 
0.059744 
0.000000 
0.000000 
0.000000 
0.000000 
0.000000 
0.000000 
0.000000 
0.000000 
0.000000 
0.000000 
0.000000 
0.000000 
0.000000 
0.000000 
0.000000 
0.000000 
0.000000 
0.000000 
0.000000 
0.000000 
0.000000 
0.000000 
0.000000 
0.000000 
0.000000 
0.000000 