# vtk DataFile Version 3.0
results.vtk
ASCII
DATASET RECTILINEAR_GRID
DIMENSIONS 301 301 1
X_COORDINATES 301 double
0.000000 0.003333 0.006667 0.010000 0.013333 0.016667 0.020000 0.023333 0.026667 0.030000 0.033333 0.036667 0.040000 0.043333 0.046667 0.050000 0.053333 0.056667 0.060000 0.063333 0.066667 0.070000 0.073333 0.076667 0.080000 0.083333 0.086667 0.090000 0.093333 0.096667 0.100000 0.103333 0.106667 0.110000 0.113333 0.116667 0.120000 0.123333 0.126667 0.130000 0.133333 0.136667 0.140000 0.143333 0.146667 0.150000 0.153333 0.156667 0.160000 0.163333 0.166667 0.170000 0.173333 0.176667 0.180000 0.183333 0.186667 0.190000 0.193333 0.196667 0.200000 0.203333 0.206667 0.210000 0.213333 0.216667 0.220000 0.223333 0.226667 0.230000 0.233333 0.236667 0.240000 0.243333 0.246667 0.250000 0.253333 0.256667 0.260000 0.263333 0.266667 0.270000 0.273333 0.276667 0.280000 0.283333 0.286667 0.290000 0.293333 0.296667 0.300000 0.303333 0.306667 0.310000 0.313333 0.316667 0.320000 0.323333 0.326667 0.330000 0.333333 0.336667 0.340000 0.343333 0.346667 0.350000 0.353333 0.356667 0.360000 0.363333 0.366667 0.370000 0.373333 0.376667 0.380000 0.383333 0.386667 0.390000 0.393333 0.396667 0.400000 0.403333 0.406667 0.410000 0.413333 0.416667 0.420000 0.423333 0.426667 0.430000 0.433333 0.436667 0.440000 0.443333 0.446667 0.450000 0.453333 0.456667 0.460000 0.463333 0.466667 0.470000 0.473333 0.476667 0.480000 0.483333 0.486667 0.490000 0.493333 0.496667 0.500000 0.503333 0.506667 0.510000 0.513333 0.516667 0.520000 0.523333 0.526667 0.530000 0.533333 0.536667 0.540000 0.543333 0.546667 0.550000 0.553333 0.556667 0.560000 0.563333 0.566667 0.570000 0.573333 0.576667 0.580000 0.583333 0.586667 0.590000 0.593333 0.596667 0.600000 0.603333 0.606667 0.610000 0.613333 0.616667 0.620000 0.623333 0.626667 0.630000 0.633333 0.636667 0.640000 0.643333 0.646667 0.650000 0.653333 0.656667 0.660000 0.663333 0.666667 0.670000 0.673333 0.676667 0.680000 0.683333 0.686667 0.690000 0.693333 0.696667 0.700000 0.703333 0.706667 0.710000 0.713333 0.716667 0.720000 0.723333 0.726667 0.730000 0.733333 0.736667 0.740000 0.743333 0.746667 0.750000 0.753333 0.756667 0.760000 0.763333 0.766667 0.770000 0.773333 0.776667 0.780000 0.783333 0.786667 0.790000 0.793333 0.796667 0.800000 0.803333 0.806667 0.810000 0.813333 0.816667 0.820000 0.823333 0.826667 0.830000 0.833333 0.836667 0.840000 0.843333 0.846667 0.850000 0.853333 0.856667 0.860000 0.863333 0.866667 0.870000 0.873333 0.876667 0.880000 0.883333 0.886667 0.890000 0.893333 0.896667 0.900000 0.903333 0.906667 0.910000 0.913333 0.916667 0.920000 0.923333 0.926667 0.930000 0.933333 0.936667 0.940000 0.943333 0.946667 0.950000 0.953333 0.956667 0.960000 0.963333 0.966667 0.970000 0.973333 0.976667 0.980000 0.983333 0.986667 0.990000 0.993333 0.996667 1.000000 
Y_COORDINATES 301 double
0.000000 0.003333 0.006667 0.010000 0.013333 0.016667 0.020000 0.023333 0.026667 0.030000 0.033333 0.036667 0.040000 0.043333 0.046667 0.050000 0.053333 0.056667 0.060000 0.063333 0.066667 0.070000 0.073333 0.076667 0.080000 0.083333 0.086667 0.090000 0.093333 0.096667 0.100000 0.103333 0.106667 0.110000 0.113333 0.116667 0.120000 0.123333 0.126667 0.130000 0.133333 0.136667 0.140000 0.143333 0.146667 0.150000 0.153333 0.156667 0.160000 0.163333 0.166667 0.170000 0.173333 0.176667 0.180000 0.183333 0.186667 0.190000 0.193333 0.196667 0.200000 0.203333 0.206667 0.210000 0.213333 0.216667 0.220000 0.223333 0.226667 0.230000 0.233333 0.236667 0.240000 0.243333 0.246667 0.250000 0.253333 0.256667 0.260000 0.263333 0.266667 0.270000 0.273333 0.276667 0.280000 0.283333 0.286667 0.290000 0.293333 0.296667 0.300000 0.303333 0.306667 0.310000 0.313333 0.316667 0.320000 0.323333 0.326667 0.330000 0.333333 0.336667 0.340000 0.343333 0.346667 0.350000 0.353333 0.356667 0.360000 0.363333 0.366667 0.370000 0.373333 0.376667 0.380000 0.383333 0.386667 0.390000 0.393333 0.396667 0.400000 0.403333 0.406667 0.410000 0.413333 0.416667 0.420000 0.423333 0.426667 0.430000 0.433333 0.436667 0.440000 0.443333 0.446667 0.450000 0.453333 0.456667 0.460000 0.463333 0.466667 0.470000 0.473333 0.476667 0.480000 0.483333 0.486667 0.490000 0.493333 0.496667 0.500000 0.503333 0.506667 0.510000 0.513333 0.516667 0.520000 0.523333 0.526667 0.530000 0.533333 0.536667 0.540000 0.543333 0.546667 0.550000 0.553333 0.556667 0.560000 0.563333 0.566667 0.570000 0.573333 0.576667 0.580000 0.583333 0.586667 0.590000 0.593333 0.596667 0.600000 0.603333 0.606667 0.610000 0.613333 0.616667 0.620000 0.623333 0.626667 0.630000 0.633333 0.636667 0.640000 0.643333 0.646667 0.650000 0.653333 0.656667 0.660000 0.663333 0.666667 0.670000 0.673333 0.676667 0.680000 0.683333 0.686667 0.690000 0.693333 0.696667 0.700000 0.703333 0.706667 0.710000 0.713333 0.716667 0.720000 0.723333 0.726667 0.730000 0.733333 0.736667 0.740000 0.743333 0.746667 0.750000 0.753333 0.756667 0.760000 0.763333 0.766667 0.770000 0.773333 0.776667 0.780000 0.783333 0.786667 0.790000 0.793333 0.796667 0.800000 0.803333 0.806667 0.810000 0.813333 0.816667 0.820000 0.823333 0.826667 0.830000 0.833333 0.836667 0.840000 0.843333 0.846667 0.850000 0.853333 0.856667 0.860000 0.863333 0.866667 0.870000 0.873333 0.876667 0.880000 0.883333 0.886667 0.890000 0.893333 0.896667 0.900000 0.903333 0.906667 0.910000 0.913333 0.916667 0.920000 0.923333 0.926667 0.930000 0.933333 0.936667 0.940000 0.943333 0.946667 0.950000 0.953333 0.956667 0.960000 0.963333 0.966667 0.970000 0.973333 0.976667 0.980000 0.983333 0.986667 0.990000 0.993333 0.996667 1.000000 
Z_COORDINATES 1 double
0
POINT_DATA 90601 
FIELD FieldData 1 
Concentração 1 90601 double 
0.000000 
0.000000 
0.000000 
0.000000 
0.000000 
0.000000 
0.000000 
0.000000 
0.000000 
0.000000 
0.000000 
0.000000 
0.000000 
0.000000 
0.000000 
0.000000 
0.000000 
0.000000 
0.000000 
0.000000 
0.000000 
0.000000 
0.000000 
0.000000 
0.000000 
0.000000 
0.000000 
0.000000 
0.000000 
0.000000 
0.000000 
0.000000 
0.000000 
0.000000 
0.000000 
0.000000 
0.000000 
0.000000 
0.000000 
0.000000 
0.000000 
0.000000 
0.000000 
0.000000 
0.000000 
0.000000 
0.000000 
0.000000 
0.000000 
0.000000 
0.000000 
0.000000 
0.000000 
0.000000 
0.000000 
0.000000 
0.000000 
0.000000 
0.000000 
0.000000 
0.000000 
0.000000 
0.000000 
0.000000 
0.000000 
0.000000 
0.000000 
0.000000 
0.000000 
0.000000 
0.000000 
0.000000 
0.000000 
0.000000 
0.000000 
0.000000 
0.000000 
0.000000 
0.000001 
0.000001 
0.000001 
0.000001 
0.000001 
0.000001 
0.000001 
0.000001 
0.000001 
0.000001 
0.000001 
0.000001 
0.000001 
0.000001 
0.000002 
0.000002 
0.000002 
0.000002 
0.000002 
0.000002 
0.000003 
0.000003 
0.000003 
0.000003 
0.000003 
0.000004 
0.000004 
0.000004 
0.000004 
0.000005 
0.000005 
0.000006 
0.000006 
0.000006 
0.000007 
0.000007 
0.000008 
0.000008 
0.000009 
0.000009 
0.000010 
0.000011 
0.000012 
0.000012 
0.000013 
0.000014 
0.000015 
0.000016 
0.000017 
0.000018 
0.000019 
0.000020 
0.000022 
0.000023 
0.000025 
0.000026 
0.000028 
0.000029 
0.000031 
0.000033 
0.000035 
0.000037 
0.000039 
0.000042 
0.000044 
0.000047 
0.000049 
0.000052 
0.000055 
0.000058 
0.000061 
0.000065 
0.000068 
0.000072 
0.000076 
0.000080 
0.000084 
0.000089 
0.000093 
0.000098 
0.000103 
0.000109 
0.000114 
0.000120 
0.000126 
0.000132 
0.000139 
0.000145 
0.000152 
0.000159 
0.000167 
0.000175 
0.000183 
0.000191 
0.000200 
0.000209 
0.000218 
0.000228 
0.000238 
0.000249 
0.000259 
0.000270 
0.000282 
0.000293 
0.000306 
0.000318 
0.000331 
0.000344 
0.000358 
0.000372 
0.000387 
0.000401 
0.000417 
0.000432 
0.000448 
0.000465 
0.000482 
0.000499 
0.000517 
0.000535 
0.000554 
0.000573 
0.000592 
0.000612 
0.000633 
0.000653 
0.000675 
0.000696 
0.000718 
0.000741 
0.000763 
0.000787 
0.000810 
0.000834 
0.000859 
0.000883 
0.000909 
0.000934 
0.000960 
0.000986 
0.001013 
0.001040 
0.001067 
0.001095 
0.001122 
0.001151 
0.001179 
0.001208 
0.001237 
0.001266 
0.001295 
0.001325 
0.001354 
0.001384 
0.001415 
0.001445 
0.001475 
0.001506 
0.001536 
0.001567 
0.001598 
0.001629 
0.001659 
0.001690 
0.001721 
0.001752 
0.001783 
0.001813 
0.001844 
0.001874 
0.001905 
0.001935 
0.001965 
0.001995 
0.002025 
0.002054 
0.002083 
0.002112 
0.002141 
0.002169 
0.002197 
0.002225 
0.002252 
0.002279 
0.002305 
0.002332 
0.002357 
0.002382 
0.002407 
0.002431 
0.002455 
0.002478 
0.002501 
0.002523 
0.002545 
0.002566 
0.002586 
0.002606 
0.002625 
0.002643 
0.002661 
0.002678 
0.002694 
0.002710 
0.002725 
0.002739 
0.002753 
0.002766 
0.002778 
0.002789 
0.002799 
0.002809 
0.002818 
0.002826 
0.002833 
0.002840 
0.002846 
0.002851 
0.002855 
0.002858 
0.002861 
0.002862 
0.002863 
0.000000 
0.000000 
0.000000 
0.000000 
0.000000 
0.000000 
0.000000 
0.000000 
0.000000 
0.000000 
0.000000 
0.000000 
0.000000 
0.000000 
0.000000 
0.000000 
0.000000 
0.000000 
0.000000 
0.000000 
0.000000 
0.000000 
0.000000 
0.000000 
0.000000 
0.000000 
0.000000 
0.000000 
0.000000 
0.000000 
0.000000 
0.000000 
0.000000 
0.000000 
0.000000 
0.000000 
0.000000 
0.000000 
0.000000 
0.000000 
0.000000 
0.000000 
0.000000 
0.000000 
0.000000 
0.000000 
0.000000 
0.000000 
0.000000 
0.000000 
0.000000 
0.000000 
0.000000 
0.000000 
0.000000 
0.000000 
0.000000 
0.000000 
0.000000 
0.000000 
0.000000 
0.000000 
0.000000 
0.000000 
0.000000 
0.000000 
0.000000 
0.000000 
0.000000 
0.000001 
0.000001 
0.000001 
0.000001 
0.000001 
0.000001 
0.000001 
0.000001 
0.000001 
0.000001 
0.000001 
0.000001 
0.000001 
0.000001 
0.000002 
0.000002 
0.000002 
0.000002 
0.000002 
0.000002 
0.000003 
0.000003 
0.000003 
0.000003 
0.000003 
0.000004 
0.000004 
0.000004 
0.000005 
0.000005 
0.000005 
0.000006 
0.000006 
0.000007 
0.000007 
0.000008 
0.000008 
0.000009 
0.000010 
0.000010 
0.000011 
0.000012 
0.000013 
0.000014 
0.000015 
0.000016 
0.000017 
0.000018 
0.000019 
0.000020 
0.000022 
0.000023 
0.000025 
0.000026 
0.000028 
0.000030 
0.000032 
0.000034 
0.000036 
0.000039 
0.000041 
0.000044 
0.000047 
0.000049 
0.000052 
0.000056 
0.000059 
0.000063 
0.000067 
0.000071 
0.000075 
0.000079 
0.000084 
0.000089 
0.000094 
0.000099 
0.000105 
0.000111 
0.000117 
0.000123 
0.000130 
0.000137 
0.000145 
0.000153 
0.000161 
0.000170 
0.000178 
0.000188 
0.000198 
0.000208 
0.000218 
0.000229 
0.000241 
0.000253 
0.000265 
0.000278 
0.000292 
0.000306 
0.000321 
0.000336 
0.000351 
0.000368 
0.000385 
0.000402 
0.000420 
0.000439 
0.000459 
0.000479 
0.000499 
0.000521 
0.000543 
0.000566 
0.000590 
0.000614 
0.000639 
0.000665 
0.000692 
0.000719 
0.000747 
0.000777 
0.000806 
0.000837 
0.000869 
0.000901 
0.000934 
0.000968 
0.001003 
0.001039 
0.001075 
0.001113 
0.001151 
0.001190 
0.001230 
0.001271 
0.001312 
0.001355 
0.001398 
0.001442 
0.001487 
0.001533 
0.001580 
0.001627 
0.001675 
0.001724 
0.001774 
0.001825 
0.001876 
0.001928 
0.001980 
0.002034 
0.002088 
0.002142 
0.002197 
0.002253 
0.002310 
0.002367 
0.002424 
0.002482 
0.002541 
0.002600 
0.002659 
0.002719 
0.002779 
0.002839 
0.002900 
0.002961 
0.003022 
0.003083 
0.003145 
0.003207 
0.003268 
0.003330 
0.003392 
0.003454 
0.003515 
0.003577 
0.003638 
0.003700 
0.003761 
0.003822 
0.003882 
0.003942 
0.004002 
0.004062 
0.004121 
0.004179 
0.004237 
0.004294 
0.004351 
0.004407 
0.004463 
0.004517 
0.004571 
0.004624 
0.004677 
0.004728 
0.004778 
0.004828 
0.004876 
0.004924 
0.004970 
0.005016 
0.005060 
0.005103 
0.005145 
0.005186 
0.005225 
0.005263 
0.005300 
0.005336 
0.005370 
0.005403 
0.005434 
0.005464 
0.005493 
0.005520 
0.005546 
0.005570 
0.005592 
0.005613 
0.005633 
0.005651 
0.005667 
0.005682 
0.005695 
0.005706 
0.005716 
0.005724 
0.005731 
0.005736 
0.005739 
0.005741 
0.000000 
0.000000 
0.000000 
0.000000 
0.000000 
0.000000 
0.000000 
0.000000 
0.000000 
0.000000 
0.000000 
0.000000 
0.000000 
0.000000 
0.000000 
0.000000 
0.000000 
0.000000 
0.000000 
0.000000 
0.000000 
0.000000 
0.000000 
0.000000 
0.000000 
0.000000 
0.000000 
0.000000 
0.000000 
0.000000 
0.000000 
0.000000 
0.000000 
0.000000 
0.000000 
0.000000 
0.000000 
0.000000 
0.000000 
0.000000 
0.000000 
0.000000 
0.000000 
0.000000 
0.000000 
0.000000 
0.000000 
0.000000 
0.000000 
0.000000 
0.000000 
0.000000 
0.000000 
0.000000 
0.000000 
0.000000 
0.000000 
0.000000 
0.000000 
0.000000 
0.000000 
0.000000 
0.000000 
0.000000 
0.000000 
0.000001 
0.000001 
0.000001 
0.000001 
0.000001 
0.000001 
0.000001 
0.000001 
0.000001 
0.000001 
0.000001 
0.000001 
0.000001 
0.000002 
0.000002 
0.000002 
0.000002 
0.000002 
0.000002 
0.000003 
0.000003 
0.000003 
0.000003 
0.000004 
0.000004 
0.000004 
0.000004 
0.000005 
0.000005 
0.000006 
0.000006 
0.000007 
0.000007 
0.000008 
0.000008 
0.000009 
0.000009 
0.000010 
0.000011 
0.000012 
0.000013 
0.000014 
0.000015 
0.000016 
0.000017 
0.000018 
0.000019 
0.000021 
0.000022 
0.000024 
0.000025 
0.000027 
0.000029 
0.000031 
0.000033 
0.000035 
0.000038 
0.000040 
0.000043 
0.000046 
0.000049 
0.000052 
0.000055 
0.000059 
0.000062 
0.000066 
0.000070 
0.000075 
0.000079 
0.000084 
0.000089 
0.000095 
0.000101 
0.000107 
0.000113 
0.000120 
0.000127 
0.000134 
0.000142 
0.000150 
0.000159 
0.000168 
0.000177 
0.000187 
0.000197 
0.000208 
0.000219 
0.000231 
0.000244 
0.000257 
0.000270 
0.000284 
0.000299 
0.000314 
0.000330 
0.000347 
0.000364 
0.000383 
0.000401 
0.000421 
0.000442 
0.000463 
0.000485 
0.000508 
0.000531 
0.000556 
0.000582 
0.000608 
0.000635 
0.000664 
0.000693 
0.000724 
0.000755 
0.000788 
0.000821 
0.000856 
0.000891 
0.000928 
0.000966 
0.001005 
0.001046 
0.001087 
0.001130 
0.001174 
0.001219 
0.001265 
0.001313 
0.001362 
0.001412 
0.001463 
0.001516 
0.001569 
0.001625 
0.001681 
0.001739 
0.001798 
0.001858 
0.001920 
0.001982 
0.002047 
0.002112 
0.002179 
0.002246 
0.002316 
0.002386 
0.002457 
0.002530 
0.002604 
0.002679 
0.002755 
0.002832 
0.002910 
0.002990 
0.003070 
0.003152 
0.003234 
0.003317 
0.003401 
0.003486 
0.003572 
0.003659 
0.003746 
0.003834 
0.003923 
0.004012 
0.004102 
0.004193 
0.004284 
0.004375 
0.004467 
0.004559 
0.004652 
0.004744 
0.004837 
0.004930 
0.005023 
0.005116 
0.005209 
0.005302 
0.005395 
0.005487 
0.005580 
0.005671 
0.005763 
0.005854 
0.005945 
0.006035 
0.006124 
0.006213 
0.006301 
0.006388 
0.006474 
0.006559 
0.006644 
0.006727 
0.006809 
0.006890 
0.006970 
0.007049 
0.007126 
0.007202 
0.007276 
0.007349 
0.007421 
0.007491 
0.007559 
0.007625 
0.007690 
0.007753 
0.007814 
0.007874 
0.007931 
0.007986 
0.008040 
0.008091 
0.008141 
0.008188 
0.008233 
0.008276 
0.008317 
0.008355 
0.008391 
0.008425 
0.008457 
0.008486 
0.008513 
0.008537 
0.008559 
0.008579 
0.008596 
0.008611 
0.008624 
0.008634 
0.008641 
0.008646 
0.008648 
0.000000 
0.000000 
0.000000 
0.000000 
0.000000 
0.000000 
0.000000 
0.000000 
0.000000 
0.000000 
0.000000 
0.000000 
0.000000 
0.000000 
0.000000 
0.000000 
0.000000 
0.000000 
0.000000 
0.000000 
0.000000 
0.000000 
0.000000 
0.000000 
0.000000 
0.000000 
0.000000 
0.000000 
0.000000 
0.000000 
0.000000 
0.000000 
0.000000 
0.000000 
0.000000 
0.000000 
0.000000 
0.000000 
0.000000 
0.000000 
0.000000 
0.000000 
0.000000 
0.000000 
0.000000 
0.000000 
0.000000 
0.000000 
0.000000 
0.000000 
0.000000 
0.000000 
0.000000 
0.000000 
0.000000 
0.000000 
0.000000 
0.000000 
0.000000 
0.000000 
0.000000 
0.000001 
0.000001 
0.000001 
0.000001 
0.000001 
0.000001 
0.000001 
0.000001 
0.000001 
0.000001 
0.000001 
0.000001 
0.000001 
0.000002 
0.000002 
0.000002 
0.000002 
0.000002 
0.000002 
0.000003 
0.000003 
0.000003 
0.000003 
0.000004 
0.000004 
0.000004 
0.000004 
0.000005 
0.000005 
0.000006 
0.000006 
0.000007 
0.000007 
0.000008 
0.000008 
0.000009 
0.000010 
0.000010 
0.000011 
0.000012 
0.000013 
0.000014 
0.000015 
0.000016 
0.000017 
0.000018 
0.000020 
0.000021 
0.000023 
0.000024 
0.000026 
0.000028 
0.000030 
0.000032 
0.000034 
0.000036 
0.000039 
0.000042 
0.000045 
0.000048 
0.000051 
0.000054 
0.000058 
0.000061 
0.000065 
0.000070 
0.000074 
0.000079 
0.000084 
0.000089 
0.000095 
0.000101 
0.000107 
0.000114 
0.000121 
0.000128 
0.000136 
0.000144 
0.000153 
0.000162 
0.000171 
0.000181 
0.000192 
0.000203 
0.000214 
0.000226 
0.000239 
0.000252 
0.000266 
0.000281 
0.000296 
0.000312 
0.000329 
0.000346 
0.000364 
0.000383 
0.000403 
0.000424 
0.000446 
0.000468 
0.000492 
0.000516 
0.000542 
0.000568 
0.000595 
0.000624 
0.000654 
0.000685 
0.000717 
0.000750 
0.000784 
0.000820 
0.000857 
0.000895 
0.000935 
0.000976 
0.001018 
0.001062 
0.001107 
0.001153 
0.001202 
0.001251 
0.001302 
0.001355 
0.001409 
0.001465 
0.001522 
0.001582 
0.001642 
0.001705 
0.001769 
0.001834 
0.001902 
0.001971 
0.002041 
0.002114 
0.002188 
0.002264 
0.002342 
0.002421 
0.002502 
0.002585 
0.002669 
0.002756 
0.002843 
0.002933 
0.003024 
0.003117 
0.003211 
0.003307 
0.003405 
0.003504 
0.003605 
0.003707 
0.003811 
0.003916 
0.004023 
0.004131 
0.004240 
0.004350 
0.004462 
0.004575 
0.004689 
0.004804 
0.004921 
0.005038 
0.005156 
0.005275 
0.005395 
0.005516 
0.005637 
0.005759 
0.005882 
0.006005 
0.006128 
0.006252 
0.006376 
0.006501 
0.006625 
0.006750 
0.006875 
0.006999 
0.007124 
0.007248 
0.007372 
0.007495 
0.007618 
0.007741 
0.007863 
0.007984 
0.008105 
0.008225 
0.008343 
0.008461 
0.008578 
0.008693 
0.008807 
0.008920 
0.009032 
0.009142 
0.009250 
0.009357 
0.009462 
0.009566 
0.009667 
0.009767 
0.009864 
0.009960 
0.010053 
0.010144 
0.010233 
0.010320 
0.010404 
0.010486 
0.010565 
0.010642 
0.010716 
0.010788 
0.010856 
0.010922 
0.010985 
0.011046 
0.011103 
0.011158 
0.011209 
0.011257 
0.011303 
0.011345 
0.011384 
0.011420 
0.011453 
0.011482 
0.011508 
0.011532 
0.011551 
0.011568 
0.011581 
0.011591 
0.011598 
0.011601 
0.000000 
0.000000 
0.000000 
0.000000 
0.000000 
0.000000 
0.000000 
0.000000 
0.000000 
0.000000 
0.000000 
0.000000 
0.000000 
0.000000 
0.000000 
0.000000 
0.000000 
0.000000 
0.000000 
0.000000 
0.000000 
0.000000 
0.000000 
0.000000 
0.000000 
0.000000 
0.000000 
0.000000 
0.000000 
0.000000 
0.000000 
0.000000 
0.000000 
0.000000 
0.000000 
0.000000 
0.000000 
0.000000 
0.000000 
0.000000 
0.000000 
0.000000 
0.000000 
0.000000 
0.000000 
0.000000 
0.000000 
0.000000 
0.000000 
0.000000 
0.000000 
0.000000 
0.000000 
0.000000 
0.000000 
0.000000 
0.000000 
0.000000 
0.000000 
0.000001 
0.000001 
0.000001 
0.000001 
0.000001 
0.000001 
0.000001 
0.000001 
0.000001 
0.000001 
0.000001 
0.000001 
0.000002 
0.000002 
0.000002 
0.000002 
0.000002 
0.000002 
0.000003 
0.000003 
0.000003 
0.000003 
0.000004 
0.000004 
0.000004 
0.000004 
0.000005 
0.000005 
0.000006 
0.000006 
0.000007 
0.000007 
0.000008 
0.000008 
0.000009 
0.000010 
0.000010 
0.000011 
0.000012 
0.000013 
0.000014 
0.000015 
0.000016 
0.000018 
0.000019 
0.000020 
0.000022 
0.000023 
0.000025 
0.000027 
0.000029 
0.000031 
0.000033 
0.000035 
0.000038 
0.000041 
0.000043 
0.000046 
0.000050 
0.000053 
0.000057 
0.000060 
0.000064 
0.000069 
0.000073 
0.000078 
0.000083 
0.000089 
0.000094 
0.000100 
0.000107 
0.000114 
0.000121 
0.000128 
0.000136 
0.000145 
0.000153 
0.000163 
0.000173 
0.000183 
0.000194 
0.000205 
0.000217 
0.000230 
0.000243 
0.000257 
0.000272 
0.000287 
0.000303 
0.000320 
0.000338 
0.000356 
0.000376 
0.000396 
0.000417 
0.000439 
0.000462 
0.000487 
0.000512 
0.000538 
0.000565 
0.000594 
0.000624 
0.000655 
0.000687 
0.000721 
0.000755 
0.000792 
0.000829 
0.000868 
0.000909 
0.000951 
0.000995 
0.001040 
0.001087 
0.001135 
0.001185 
0.001237 
0.001291 
0.001346 
0.001403 
0.001462 
0.001523 
0.001586 
0.001650 
0.001717 
0.001786 
0.001856 
0.001929 
0.002004 
0.002081 
0.002159 
0.002240 
0.002323 
0.002409 
0.002496 
0.002585 
0.002677 
0.002771 
0.002867 
0.002965 
0.003065 
0.003167 
0.003272 
0.003379 
0.003488 
0.003599 
0.003712 
0.003827 
0.003944 
0.004063 
0.004184 
0.004308 
0.004433 
0.004560 
0.004689 
0.004820 
0.004952 
0.005087 
0.005223 
0.005361 
0.005500 
0.005641 
0.005783 
0.005927 
0.006072 
0.006219 
0.006366 
0.006515 
0.006665 
0.006816 
0.006968 
0.007121 
0.007275 
0.007429 
0.007584 
0.007739 
0.007895 
0.008052 
0.008208 
0.008365 
0.008522 
0.008679 
0.008835 
0.008992 
0.009148 
0.009304 
0.009459 
0.009614 
0.009768 
0.009922 
0.010074 
0.010226 
0.010376 
0.010525 
0.010673 
0.010820 
0.010965 
0.011108 
0.011250 
0.011390 
0.011528 
0.011664 
0.011799 
0.011931 
0.012060 
0.012188 
0.012313 
0.012435 
0.012555 
0.012672 
0.012787 
0.012899 
0.013007 
0.013113 
0.013216 
0.013315 
0.013411 
0.013504 
0.013594 
0.013680 
0.013763 
0.013842 
0.013918 
0.013990 
0.014058 
0.014122 
0.014183 
0.014240 
0.014293 
0.014342 
0.014387 
0.014428 
0.014465 
0.014498 
0.014527 
0.014552 
0.014572 
0.014589 
0.014601 
0.014610 
0.014614 
0.000000 
0.000000 
0.000000 
0.000000 
0.000000 
0.000000 
0.000000 
0.000000 
0.000000 
0.000000 
0.000000 
0.000000 
0.000000 
0.000000 
0.000000 
0.000000 
0.000000 
0.000000 
0.000000 
0.000000 
0.000000 
0.000000 
0.000000 
0.000000 
0.000000 
0.000000 
0.000000 
0.000000 
0.000000 
0.000000 
0.000000 
0.000000 
0.000000 
0.000000 
0.000000 
0.000000 
0.000000 
0.000000 
0.000000 
0.000000 
0.000000 
0.000000 
0.000000 
0.000000 
0.000000 
0.000000 
0.000000 
0.000000 
0.000000 
0.000000 
0.000000 
0.000000 
0.000000 
0.000000 
0.000000 
0.000000 
0.000001 
0.000001 
0.000001 
0.000001 
0.000001 
0.000001 
0.000001 
0.000001 
0.000001 
0.000001 
0.000001 
0.000001 
0.000001 
0.000002 
0.000002 
0.000002 
0.000002 
0.000002 
0.000002 
0.000003 
0.000003 
0.000003 
0.000003 
0.000004 
0.000004 
0.000004 
0.000005 
0.000005 
0.000005 
0.000006 
0.000006 
0.000007 
0.000007 
0.000008 
0.000009 
0.000009 
0.000010 
0.000011 
0.000012 
0.000013 
0.000014 
0.000015 
0.000016 
0.000017 
0.000019 
0.000020 
0.000021 
0.000023 
0.000025 
0.000027 
0.000029 
0.000031 
0.000033 
0.000035 
0.000038 
0.000040 
0.000043 
0.000046 
0.000050 
0.000053 
0.000057 
0.000061 
0.000065 
0.000069 
0.000074 
0.000079 
0.000084 
0.000090 
0.000096 
0.000102 
0.000108 
0.000115 
0.000123 
0.000131 
0.000139 
0.000148 
0.000157 
0.000167 
0.000177 
0.000188 
0.000199 
0.000211 
0.000224 
0.000237 
0.000251 
0.000266 
0.000281 
0.000297 
0.000314 
0.000332 
0.000351 
0.000371 
0.000391 
0.000413 
0.000436 
0.000459 
0.000484 
0.000510 
0.000537 
0.000565 
0.000595 
0.000625 
0.000657 
0.000691 
0.000726 
0.000762 
0.000800 
0.000839 
0.000880 
0.000923 
0.000967 
0.001013 
0.001061 
0.001110 
0.001161 
0.001215 
0.001270 
0.001327 
0.001386 
0.001447 
0.001510 
0.001575 
0.001643 
0.001713 
0.001784 
0.001859 
0.001935 
0.002014 
0.002095 
0.002179 
0.002265 
0.002353 
0.002444 
0.002538 
0.002634 
0.002732 
0.002833 
0.002937 
0.003043 
0.003152 
0.003263 
0.003377 
0.003494 
0.003613 
0.003735 
0.003860 
0.003987 
0.004116 
0.004249 
0.004383 
0.004521 
0.004661 
0.004803 
0.004948 
0.005095 
0.005245 
0.005397 
0.005551 
0.005707 
0.005866 
0.006027 
0.006190 
0.006355 
0.006522 
0.006691 
0.006862 
0.007035 
0.007209 
0.007385 
0.007562 
0.007741 
0.007922 
0.008103 
0.008286 
0.008470 
0.008655 
0.008841 
0.009028 
0.009216 
0.009404 
0.009593 
0.009782 
0.009971 
0.010161 
0.010350 
0.010540 
0.010730 
0.010919 
0.011108 
0.011296 
0.011484 
0.011671 
0.011857 
0.012043 
0.012227 
0.012410 
0.012591 
0.012771 
0.012950 
0.013127 
0.013302 
0.013475 
0.013647 
0.013816 
0.013982 
0.014147 
0.014309 
0.014468 
0.014624 
0.014778 
0.014929 
0.015077 
0.015221 
0.015363 
0.015501 
0.015635 
0.015766 
0.015894 
0.016018 
0.016137 
0.016254 
0.016366 
0.016474 
0.016577 
0.016677 
0.016773 
0.016864 
0.016950 
0.017032 
0.017110 
0.017183 
0.017252 
0.017315 
0.017375 
0.017429 
0.017478 
0.017523 
0.017563 
0.017597 
0.017627 
0.017652 
0.017672 
0.017687 
0.017697 
0.017702 
0.000000 
0.000000 
0.000000 
0.000000 
0.000000 
0.000000 
0.000000 
0.000000 
0.000000 
0.000000 
0.000000 
0.000000 
0.000000 
0.000000 
0.000000 
0.000000 
0.000000 
0.000000 
0.000000 
0.000000 
0.000000 
0.000000 
0.000000 
0.000000 
0.000000 
0.000000 
0.000000 
0.000000 
0.000000 
0.000000 
0.000000 
0.000000 
0.000000 
0.000000 
0.000000 
0.000000 
0.000000 
0.000000 
0.000000 
0.000000 
0.000000 
0.000000 
0.000000 
0.000000 
0.000000 
0.000000 
0.000000 
0.000000 
0.000000 
0.000000 
0.000000 
0.000000 
0.000000 
0.000000 
0.000001 
0.000001 
0.000001 
0.000001 
0.000001 
0.000001 
0.000001 
0.000001 
0.000001 
0.000001 
0.000001 
0.000001 
0.000001 
0.000002 
0.000002 
0.000002 
0.000002 
0.000002 
0.000002 
0.000003 
0.000003 
0.000003 
0.000003 
0.000004 
0.000004 
0.000004 
0.000005 
0.000005 
0.000006 
0.000006 
0.000007 
0.000007 
0.000008 
0.000008 
0.000009 
0.000010 
0.000010 
0.000011 
0.000012 
0.000013 
0.000014 
0.000015 
0.000016 
0.000018 
0.000019 
0.000021 
0.000022 
0.000024 
0.000026 
0.000028 
0.000030 
0.000032 
0.000034 
0.000037 
0.000039 
0.000042 
0.000045 
0.000048 
0.000052 
0.000055 
0.000059 
0.000063 
0.000068 
0.000072 
0.000077 
0.000083 
0.000088 
0.000094 
0.000100 
0.000107 
0.000114 
0.000121 
0.000129 
0.000138 
0.000147 
0.000156 
0.000166 
0.000176 
0.000187 
0.000199 
0.000211 
0.000224 
0.000237 
0.000252 
0.000267 
0.000283 
0.000299 
0.000317 
0.000335 
0.000355 
0.000375 
0.000396 
0.000419 
0.000442 
0.000467 
0.000492 
0.000519 
0.000547 
0.000577 
0.000608 
0.000640 
0.000674 
0.000709 
0.000745 
0.000783 
0.000823 
0.000865 
0.000908 
0.000953 
0.001000 
0.001049 
0.001099 
0.001152 
0.001206 
0.001263 
0.001322 
0.001383 
0.001446 
0.001512 
0.001579 
0.001650 
0.001722 
0.001797 
0.001875 
0.001955 
0.002038 
0.002123 
0.002211 
0.002302 
0.002396 
0.002492 
0.002591 
0.002693 
0.002798 
0.002906 
0.003017 
0.003131 
0.003248 
0.003368 
0.003491 
0.003617 
0.003746 
0.003878 
0.004013 
0.004151 
0.004292 
0.004437 
0.004584 
0.004735 
0.004888 
0.005045 
0.005204 
0.005367 
0.005532 
0.005701 
0.005872 
0.006046 
0.006223 
0.006403 
0.006585 
0.006770 
0.006958 
0.007148 
0.007341 
0.007536 
0.007733 
0.007932 
0.008134 
0.008338 
0.008544 
0.008751 
0.008961 
0.009172 
0.009385 
0.009599 
0.009815 
0.010032 
0.010250 
0.010469 
0.010690 
0.010911 
0.011132 
0.011355 
0.011577 
0.011800 
0.012024 
0.012247 
0.012470 
0.012694 
0.012916 
0.013139 
0.013360 
0.013581 
0.013801 
0.014020 
0.014238 
0.014455 
0.014670 
0.014883 
0.015095 
0.015305 
0.015513 
0.015719 
0.015922 
0.016123 
0.016322 
0.016518 
0.016711 
0.016901 
0.017088 
0.017272 
0.017452 
0.017629 
0.017803 
0.017972 
0.018138 
0.018300 
0.018458 
0.018612 
0.018761 
0.018906 
0.019047 
0.019183 
0.019314 
0.019441 
0.019563 
0.019680 
0.019792 
0.019898 
0.020000 
0.020096 
0.020187 
0.020273 
0.020353 
0.020428 
0.020497 
0.020561 
0.020619 
0.020671 
0.020718 
0.020758 
0.020794 
0.020823 
0.020846 
0.020864 
0.020875 
0.020881 
0.000000 
0.000000 
0.000000 
0.000000 
0.000000 
0.000000 
0.000000 
0.000000 
0.000000 
0.000000 
0.000000 
0.000000 
0.000000 
0.000000 
0.000000 
0.000000 
0.000000 
0.000000 
0.000000 
0.000000 
0.000000 
0.000000 
0.000000 
0.000000 
0.000000 
0.000000 
0.000000 
0.000000 
0.000000 
0.000000 
0.000000 
0.000000 
0.000000 
0.000000 
0.000000 
0.000000 
0.000000 
0.000000 
0.000000 
0.000000 
0.000000 
0.000000 
0.000000 
0.000000 
0.000000 
0.000000 
0.000000 
0.000000 
0.000000 
0.000000 
0.000000 
0.000000 
0.000000 
0.000001 
0.000001 
0.000001 
0.000001 
0.000001 
0.000001 
0.000001 
0.000001 
0.000001 
0.000001 
0.000001 
0.000001 
0.000002 
0.000002 
0.000002 
0.000002 
0.000002 
0.000002 
0.000003 
0.000003 
0.000003 
0.000003 
0.000004 
0.000004 
0.000004 
0.000005 
0.000005 
0.000006 
0.000006 
0.000007 
0.000007 
0.000008 
0.000008 
0.000009 
0.000010 
0.000011 
0.000011 
0.000012 
0.000013 
0.000014 
0.000015 
0.000017 
0.000018 
0.000019 
0.000021 
0.000022 
0.000024 
0.000026 
0.000028 
0.000030 
0.000032 
0.000035 
0.000037 
0.000040 
0.000043 
0.000046 
0.000049 
0.000053 
0.000057 
0.000061 
0.000065 
0.000069 
0.000074 
0.000079 
0.000085 
0.000091 
0.000097 
0.000103 
0.000110 
0.000118 
0.000125 
0.000134 
0.000142 
0.000152 
0.000161 
0.000172 
0.000183 
0.000194 
0.000207 
0.000219 
0.000233 
0.000247 
0.000262 
0.000278 
0.000295 
0.000313 
0.000331 
0.000351 
0.000371 
0.000393 
0.000416 
0.000439 
0.000464 
0.000490 
0.000518 
0.000547 
0.000577 
0.000608 
0.000641 
0.000676 
0.000712 
0.000749 
0.000789 
0.000830 
0.000873 
0.000917 
0.000964 
0.001012 
0.001063 
0.001116 
0.001170 
0.001227 
0.001286 
0.001348 
0.001412 
0.001478 
0.001547 
0.001618 
0.001692 
0.001768 
0.001847 
0.001929 
0.002014 
0.002102 
0.002192 
0.002286 
0.002382 
0.002482 
0.002585 
0.002690 
0.002800 
0.002912 
0.003028 
0.003146 
0.003269 
0.003394 
0.003524 
0.003656 
0.003792 
0.003932 
0.004075 
0.004221 
0.004372 
0.004525 
0.004683 
0.004843 
0.005008 
0.005176 
0.005347 
0.005522 
0.005700 
0.005882 
0.006068 
0.006256 
0.006449 
0.006644 
0.006843 
0.007045 
0.007251 
0.007459 
0.007671 
0.007885 
0.008103 
0.008323 
0.008547 
0.008773 
0.009001 
0.009233 
0.009466 
0.009702 
0.009941 
0.010181 
0.010424 
0.010668 
0.010915 
0.011163 
0.011412 
0.011663 
0.011916 
0.012169 
0.012424 
0.012679 
0.012935 
0.013192 
0.013450 
0.013708 
0.013965 
0.014223 
0.014481 
0.014739 
0.014996 
0.015253 
0.015508 
0.015763 
0.016017 
0.016270 
0.016521 
0.016771 
0.017019 
0.017265 
0.017509 
0.017751 
0.017990 
0.018228 
0.018462 
0.018694 
0.018922 
0.019148 
0.019370 
0.019589 
0.019804 
0.020016 
0.020223 
0.020427 
0.020627 
0.020822 
0.021013 
0.021199 
0.021381 
0.021557 
0.021729 
0.021896 
0.022058 
0.022214 
0.022365 
0.022511 
0.022651 
0.022785 
0.022914 
0.023037 
0.023153 
0.023264 
0.023369 
0.023467 
0.023559 
0.023645 
0.023725 
0.023798 
0.023864 
0.023924 
0.023978 
0.024025 
0.024065 
0.024098 
0.024125 
0.024146 
0.024159 
0.024166 
0.000000 
0.000000 
0.000000 
0.000000 
0.000000 
0.000000 
0.000000 
0.000000 
0.000000 
0.000000 
0.000000 
0.000000 
0.000000 
0.000000 
0.000000 
0.000000 
0.000000 
0.000000 
0.000000 
0.000000 
0.000000 
0.000000 
0.000000 
0.000000 
0.000000 
0.000000 