# vtk DataFile Version 3.0
results.vtk
ASCII
DATASET RECTILINEAR_GRID
DIMENSIONS 301 301 1
X_COORDINATES 301 double
0.000000 0.003333 0.006667 0.010000 0.013333 0.016667 0.020000 0.023333 0.026667 0.030000 0.033333 0.036667 0.040000 0.043333 0.046667 0.050000 0.053333 0.056667 0.060000 0.063333 0.066667 0.070000 0.073333 0.076667 0.080000 0.083333 0.086667 0.090000 0.093333 0.096667 0.100000 0.103333 0.106667 0.110000 0.113333 0.116667 0.120000 0.123333 0.126667 0.130000 0.133333 0.136667 0.140000 0.143333 0.146667 0.150000 0.153333 0.156667 0.160000 0.163333 0.166667 0.170000 0.173333 0.176667 0.180000 0.183333 0.186667 0.190000 0.193333 0.196667 0.200000 0.203333 0.206667 0.210000 0.213333 0.216667 0.220000 0.223333 0.226667 0.230000 0.233333 0.236667 0.240000 0.243333 0.246667 0.250000 0.253333 0.256667 0.260000 0.263333 0.266667 0.270000 0.273333 0.276667 0.280000 0.283333 0.286667 0.290000 0.293333 0.296667 0.300000 0.303333 0.306667 0.310000 0.313333 0.316667 0.320000 0.323333 0.326667 0.330000 0.333333 0.336667 0.340000 0.343333 0.346667 0.350000 0.353333 0.356667 0.360000 0.363333 0.366667 0.370000 0.373333 0.376667 0.380000 0.383333 0.386667 0.390000 0.393333 0.396667 0.400000 0.403333 0.406667 0.410000 0.413333 0.416667 0.420000 0.423333 0.426667 0.430000 0.433333 0.436667 0.440000 0.443333 0.446667 0.450000 0.453333 0.456667 0.460000 0.463333 0.466667 0.470000 0.473333 0.476667 0.480000 0.483333 0.486667 0.490000 0.493333 0.496667 0.500000 0.503333 0.506667 0.510000 0.513333 0.516667 0.520000 0.523333 0.526667 0.530000 0.533333 0.536667 0.540000 0.543333 0.546667 0.550000 0.553333 0.556667 0.560000 0.563333 0.566667 0.570000 0.573333 0.576667 0.580000 0.583333 0.586667 0.590000 0.593333 0.596667 0.600000 0.603333 0.606667 0.610000 0.613333 0.616667 0.620000 0.623333 0.626667 0.630000 0.633333 0.636667 0.640000 0.643333 0.646667 0.650000 0.653333 0.656667 0.660000 0.663333 0.666667 0.670000 0.673333 0.676667 0.680000 0.683333 0.686667 0.690000 0.693333 0.696667 0.700000 0.703333 0.706667 0.710000 0.713333 0.716667 0.720000 0.723333 0.726667 0.730000 0.733333 0.736667 0.740000 0.743333 0.746667 0.750000 0.753333 0.756667 0.760000 0.763333 0.766667 0.770000 0.773333 0.776667 0.780000 0.783333 0.786667 0.790000 0.793333 0.796667 0.800000 0.803333 0.806667 0.810000 0.813333 0.816667 0.820000 0.823333 0.826667 0.830000 0.833333 0.836667 0.840000 0.843333 0.846667 0.850000 0.853333 0.856667 0.860000 0.863333 0.866667 0.870000 0.873333 0.876667 0.880000 0.883333 0.886667 0.890000 0.893333 0.896667 0.900000 0.903333 0.906667 0.910000 0.913333 0.916667 0.920000 0.923333 0.926667 0.930000 0.933333 0.936667 0.940000 0.943333 0.946667 0.950000 0.953333 0.956667 0.960000 0.963333 0.966667 0.970000 0.973333 0.976667 0.980000 0.983333 0.986667 0.990000 0.993333 0.996667 1.000000 
Y_COORDINATES 301 double
0.000000 0.003333 0.006667 0.010000 0.013333 0.016667 0.020000 0.023333 0.026667 0.030000 0.033333 0.036667 0.040000 0.043333 0.046667 0.050000 0.053333 0.056667 0.060000 0.063333 0.066667 0.070000 0.073333 0.076667 0.080000 0.083333 0.086667 0.090000 0.093333 0.096667 0.100000 0.103333 0.106667 0.110000 0.113333 0.116667 0.120000 0.123333 0.126667 0.130000 0.133333 0.136667 0.140000 0.143333 0.146667 0.150000 0.153333 0.156667 0.160000 0.163333 0.166667 0.170000 0.173333 0.176667 0.180000 0.183333 0.186667 0.190000 0.193333 0.196667 0.200000 0.203333 0.206667 0.210000 0.213333 0.216667 0.220000 0.223333 0.226667 0.230000 0.233333 0.236667 0.240000 0.243333 0.246667 0.250000 0.253333 0.256667 0.260000 0.263333 0.266667 0.270000 0.273333 0.276667 0.280000 0.283333 0.286667 0.290000 0.293333 0.296667 0.300000 0.303333 0.306667 0.310000 0.313333 0.316667 0.320000 0.323333 0.326667 0.330000 0.333333 0.336667 0.340000 0.343333 0.346667 0.350000 0.353333 0.356667 0.360000 0.363333 0.366667 0.370000 0.373333 0.376667 0.380000 0.383333 0.386667 0.390000 0.393333 0.396667 0.400000 0.403333 0.406667 0.410000 0.413333 0.416667 0.420000 0.423333 0.426667 0.430000 0.433333 0.436667 0.440000 0.443333 0.446667 0.450000 0.453333 0.456667 0.460000 0.463333 0.466667 0.470000 0.473333 0.476667 0.480000 0.483333 0.486667 0.490000 0.493333 0.496667 0.500000 0.503333 0.506667 0.510000 0.513333 0.516667 0.520000 0.523333 0.526667 0.530000 0.533333 0.536667 0.540000 0.543333 0.546667 0.550000 0.553333 0.556667 0.560000 0.563333 0.566667 0.570000 0.573333 0.576667 0.580000 0.583333 0.586667 0.590000 0.593333 0.596667 0.600000 0.603333 0.606667 0.610000 0.613333 0.616667 0.620000 0.623333 0.626667 0.630000 0.633333 0.636667 0.640000 0.643333 0.646667 0.650000 0.653333 0.656667 0.660000 0.663333 0.666667 0.670000 0.673333 0.676667 0.680000 0.683333 0.686667 0.690000 0.693333 0.696667 0.700000 0.703333 0.706667 0.710000 0.713333 0.716667 0.720000 0.723333 0.726667 0.730000 0.733333 0.736667 0.740000 0.743333 0.746667 0.750000 0.753333 0.756667 0.760000 0.763333 0.766667 0.770000 0.773333 0.776667 0.780000 0.783333 0.786667 0.790000 0.793333 0.796667 0.800000 0.803333 0.806667 0.810000 0.813333 0.816667 0.820000 0.823333 0.826667 0.830000 0.833333 0.836667 0.840000 0.843333 0.846667 0.850000 0.853333 0.856667 0.860000 0.863333 0.866667 0.870000 0.873333 0.876667 0.880000 0.883333 0.886667 0.890000 0.893333 0.896667 0.900000 0.903333 0.906667 0.910000 0.913333 0.916667 0.920000 0.923333 0.926667 0.930000 0.933333 0.936667 0.940000 0.943333 0.946667 0.950000 0.953333 0.956667 0.960000 0.963333 0.966667 0.970000 0.973333 0.976667 0.980000 0.983333 0.986667 0.990000 0.993333 0.996667 1.000000 
Z_COORDINATES 1 double
0
POINT_DATA 90601 
FIELD FieldData 1 
Concentração 1 90601 double 
0.000000 
0.000000 
0.000000 
0.000000 
0.000000 
0.000000 
0.000000 
0.000000 
0.000000 
0.000000 
0.000000 
0.000000 
0.000000 
0.000000 
0.000000 
0.000000 
0.000000 
0.000000 
0.000000 
0.000000 
0.000000 
0.000000 
0.000000 
0.000000 
0.000000 
0.000000 
0.000000 
0.000000 
0.000000 
0.000000 
0.000000 
0.000000 
0.000000 
0.000000 
0.000000 
0.000000 
0.000000 
0.000000 
0.000000 
0.000000 
0.000000 
0.000000 
0.000000 
0.000000 
0.000000 
0.000000 
0.000000 
0.000000 
0.000000 
0.000000 
0.000000 
0.000000 
0.000000 
0.000000 
0.000000 
0.000000 
0.000000 
0.000000 
0.000000 
0.000000 
0.000000 
0.000000 
0.000000 
0.000000 
0.000000 
0.000000 
0.000000 
0.000000 
0.000000 
0.000000 
0.000000 
0.000000 
0.000000 
0.000000 
0.000000 
0.000000 
0.000000 
0.000000 
0.000000 
0.000000 
0.000000 
0.000000 
0.000000 
0.000000 
0.000000 
0.000001 
0.000001 
0.000001 
0.000001 
0.000001 
0.000001 
0.000001 
0.000001 
0.000001 
0.000001 
0.000001 
0.000001 
0.000001 
0.000001 
0.000002 
0.000002 
0.000002 
0.000002 
0.000002 
0.000002 
0.000002 
0.000003 
0.000003 
0.000003 
0.000003 
0.000003 
0.000004 
0.000004 
0.000004 
0.000005 
0.000005 
0.000005 
0.000006 
0.000006 
0.000006 
0.000007 
0.000007 
0.000008 
0.000008 
0.000009 
0.000010 
0.000010 
0.000011 
0.000012 
0.000012 
0.000013 
0.000014 
0.000015 
0.000016 
0.000017 
0.000018 
0.000019 
0.000020 
0.000021 
0.000023 
0.000024 
0.000025 
0.000027 
0.000028 
0.000030 
0.000032 
0.000034 
0.000036 
0.000038 
0.000040 
0.000042 
0.000044 
0.000047 
0.000049 
0.000052 
0.000055 
0.000058 
0.000061 
0.000064 
0.000067 
0.000071 
0.000074 
0.000078 
0.000082 
0.000086 
0.000090 
0.000095 
0.000099 
0.000104 
0.000109 
0.000114 
0.000120 
0.000125 
0.000131 
0.000137 
0.000144 
0.000150 
0.000157 
0.000164 
0.000171 
0.000178 
0.000186 
0.000194 
0.000202 
0.000210 
0.000219 
0.000228 
0.000237 
0.000247 
0.000256 
0.000267 
0.000277 
0.000288 
0.000298 
0.000310 
0.000321 
0.000333 
0.000345 
0.000357 
0.000370 
0.000383 
0.000397 
0.000410 
0.000424 
0.000438 
0.000453 
0.000468 
0.000483 
0.000498 
0.000514 
0.000530 
0.000546 
0.000563 
0.000580 
0.000597 
0.000614 
0.000632 
0.000650 
0.000668 
0.000686 
0.000705 
0.000724 
0.000743 
0.000763 
0.000782 
0.000802 
0.000822 
0.000842 
0.000863 
0.000883 
0.000904 
0.000925 
0.000946 
0.000967 
0.000989 
0.001010 
0.001032 
0.001053 
0.001075 
0.001096 
0.001118 
0.001140 
0.001162 
0.001184 
0.001205 
0.001227 
0.001249 
0.001271 
0.001292 
0.001314 
0.001335 
0.001357 
0.001378 
0.001399 
0.001420 
0.001441 
0.001461 
0.001481 
0.001502 
0.001522 
0.001541 
0.001561 
0.001580 
0.001599 
0.001617 
0.001636 
0.001653 
0.001671 
0.001688 
0.001705 
0.001722 
0.001738 
0.001753 
0.001769 
0.001783 
0.001798 
0.001812 
0.001825 
0.001838 
0.001851 
0.001863 
0.001874 
0.001885 
0.001896 
0.001905 
0.001915 
0.001924 
0.001932 
0.001940 
0.001947 
0.001953 
0.001959 
0.001965 
0.001970 
0.001974 
0.001977 
0.001980 
0.001983 
0.001985 
0.001986 
0.001987 
0.000000 
0.000000 
0.000000 
0.000000 
0.000000 
0.000000 
0.000000 
0.000000 
0.000000 
0.000000 
0.000000 
0.000000 
0.000000 
0.000000 
0.000000 
0.000000 
0.000000 
0.000000 
0.000000 
0.000000 
0.000000 
0.000000 
0.000000 
0.000000 
0.000000 
0.000000 
0.000000 
0.000000 
0.000000 
0.000000 
0.000000 
0.000000 
0.000000 
0.000000 
0.000000 
0.000000 
0.000000 
0.000000 
0.000000 
0.000000 
0.000000 
0.000000 
0.000000 
0.000000 
0.000000 
0.000000 
0.000000 
0.000000 
0.000000 
0.000000 
0.000000 
0.000000 
0.000000 
0.000000 
0.000000 
0.000000 
0.000000 
0.000000 
0.000000 
0.000000 
0.000000 
0.000000 
0.000000 
0.000000 
0.000000 
0.000000 
0.000000 
0.000000 
0.000000 
0.000000 
0.000000 
0.000000 
0.000000 
0.000000 
0.000000 
0.000000 
0.000001 
0.000001 
0.000001 
0.000001 
0.000001 
0.000001 
0.000001 
0.000001 
0.000001 
0.000001 
0.000001 
0.000001 
0.000001 
0.000001 
0.000002 
0.000002 
0.000002 
0.000002 
0.000002 
0.000002 
0.000003 
0.000003 
0.000003 
0.000003 
0.000003 
0.000004 
0.000004 
0.000004 
0.000005 
0.000005 
0.000005 
0.000006 
0.000006 
0.000007 
0.000007 
0.000007 
0.000008 
0.000009 
0.000009 
0.000010 
0.000011 
0.000011 
0.000012 
0.000013 
0.000014 
0.000015 
0.000016 
0.000017 
0.000018 
0.000019 
0.000020 
0.000022 
0.000023 
0.000025 
0.000026 
0.000028 
0.000030 
0.000032 
0.000034 
0.000036 
0.000038 
0.000040 
0.000043 
0.000045 
0.000048 
0.000051 
0.000054 
0.000057 
0.000060 
0.000064 
0.000068 
0.000071 
0.000076 
0.000080 
0.000084 
0.000089 
0.000094 
0.000099 
0.000104 
0.000110 
0.000116 
0.000122 
0.000128 
0.000135 
0.000142 
0.000149 
0.000157 
0.000165 
0.000173 
0.000182 
0.000191 
0.000200 
0.000210 
0.000220 
0.000230 
0.000241 
0.000252 
0.000264 
0.000276 
0.000289 
0.000302 
0.000315 
0.000329 
0.000343 
0.000358 
0.000374 
0.000390 
0.000406 
0.000423 
0.000440 
0.000458 
0.000477 
0.000496 
0.000516 
0.000536 
0.000556 
0.000578 
0.000600 
0.000622 
0.000645 
0.000669 
0.000693 
0.000718 
0.000744 
0.000770 
0.000797 
0.000824 
0.000852 
0.000881 
0.000910 
0.000940 
0.000970 
0.001001 
0.001032 
0.001065 
0.001097 
0.001131 
0.001164 
0.001199 
0.001234 
0.001269 
0.001305 
0.001342 
0.001379 
0.001416 
0.001455 
0.001493 
0.001532 
0.001571 
0.001611 
0.001651 
0.001692 
0.001733 
0.001774 
0.001816 
0.001858 
0.001900 
0.001943 
0.001985 
0.002028 
0.002071 
0.002115 
0.002158 
0.002202 
0.002245 
0.002289 
0.002333 
0.002376 
0.002420 
0.002464 
0.002507 
0.002551 
0.002594 
0.002637 
0.002680 
0.002723 
0.002766 
0.002808 
0.002850 
0.002892 
0.002933 
0.002974 
0.003014 
0.003054 
0.003094 
0.003132 
0.003171 
0.003209 
0.003246 
0.003283 
0.003318 
0.003354 
0.003388 
0.003422 
0.003455 
0.003487 
0.003519 
0.003549 
0.003579 
0.003608 
0.003636 
0.003663 
0.003689 
0.003714 
0.003738 
0.003761 
0.003783 
0.003804 
0.003824 
0.003842 
0.003860 
0.003877 
0.003892 
0.003906 
0.003920 
0.003932 
0.003942 
0.003952 
0.003960 
0.003968 
0.003974 
0.003979 
0.003982 
0.003985 
0.003986 
0.000000 
0.000000 
0.000000 
0.000000 
0.000000 
0.000000 
0.000000 
0.000000 
0.000000 
0.000000 
0.000000 
0.000000 
0.000000 
0.000000 
0.000000 
0.000000 
0.000000 
0.000000 
0.000000 
0.000000 
0.000000 
0.000000 
0.000000 
0.000000 
0.000000 
0.000000 
0.000000 
0.000000 
0.000000 
0.000000 
0.000000 
0.000000 
0.000000 
0.000000 
0.000000 
0.000000 
0.000000 
0.000000 
0.000000 
0.000000 
0.000000 
0.000000 
0.000000 
0.000000 
0.000000 
0.000000 
0.000000 
0.000000 
0.000000 
0.000000 
0.000000 
0.000000 
0.000000 
0.000000 
0.000000 
0.000000 
0.000000 
0.000000 
0.000000 
0.000000 
0.000000 
0.000000 
0.000000 
0.000000 
0.000000 
0.000000 
0.000000 
0.000000 
0.000000 
0.000000 
0.000000 
0.000001 
0.000001 
0.000001 
0.000001 
0.000001 
0.000001 
0.000001 
0.000001 
0.000001 
0.000001 
0.000001 
0.000001 
0.000001 
0.000001 
0.000002 
0.000002 
0.000002 
0.000002 
0.000002 
0.000002 
0.000003 
0.000003 
0.000003 
0.000003 
0.000004 
0.000004 
0.000004 
0.000004 
0.000005 
0.000005 
0.000006 
0.000006 
0.000006 
0.000007 
0.000007 
0.000008 
0.000009 
0.000009 
0.000010 
0.000011 
0.000011 
0.000012 
0.000013 
0.000014 
0.000015 
0.000016 
0.000017 
0.000018 
0.000020 
0.000021 
0.000022 
0.000024 
0.000025 
0.000027 
0.000029 
0.000031 
0.000033 
0.000035 
0.000037 
0.000040 
0.000042 
0.000045 
0.000048 
0.000051 
0.000054 
0.000057 
0.000061 
0.000065 
0.000069 
0.000073 
0.000077 
0.000082 
0.000086 
0.000091 
0.000097 
0.000102 
0.000108 
0.000114 
0.000121 
0.000128 
0.000135 
0.000142 
0.000150 
0.000158 
0.000166 
0.000175 
0.000185 
0.000194 
0.000204 
0.000215 
0.000226 
0.000238 
0.000250 
0.000262 
0.000275 
0.000289 
0.000303 
0.000317 
0.000332 
0.000348 
0.000365 
0.000382 
0.000399 
0.000418 
0.000437 
0.000456 
0.000477 
0.000498 
0.000519 
0.000542 
0.000565 
0.000589 
0.000614 
0.000640 
0.000666 
0.000693 
0.000721 
0.000750 
0.000780 
0.000810 
0.000842 
0.000874 
0.000907 
0.000941 
0.000976 
0.001012 
0.001048 
0.001086 
0.001125 
0.001164 
0.001205 
0.001246 
0.001288 
0.001331 
0.001375 
0.001420 
0.001466 
0.001513 
0.001560 
0.001609 
0.001658 
0.001708 
0.001760 
0.001812 
0.001864 
0.001918 
0.001972 
0.002027 
0.002083 
0.002140 
0.002197 
0.002255 
0.002314 
0.002374 
0.002434 
0.002494 
0.002556 
0.002617 
0.002680 
0.002743 
0.002806 
0.002869 
0.002933 
0.002998 
0.003063 
0.003128 
0.003193 
0.003258 
0.003324 
0.003390 
0.003456 
0.003522 
0.003587 
0.003653 
0.003719 
0.003785 
0.003850 
0.003916 
0.003981 
0.004046 
0.004110 
0.004174 
0.004238 
0.004301 
0.004364 
0.004426 
0.004487 
0.004548 
0.004608 
0.004668 
0.004727 
0.004784 
0.004841 
0.004897 
0.004952 
0.005007 
0.005060 
0.005112 
0.005163 
0.005212 
0.005261 
0.005308 
0.005354 
0.005399 
0.005442 
0.005484 
0.005525 
0.005564 
0.005602 
0.005638 
0.005672 
0.005706 
0.005737 
0.005767 
0.005795 
0.005822 
0.005847 
0.005870 
0.005892 
0.005911 
0.005929 
0.005946 
0.005960 
0.005973 
0.005984 
0.005993 
0.006000 
0.006006 
0.006009 
0.006011 
0.000000 
0.000000 
0.000000 
0.000000 
0.000000 
0.000000 
0.000000 
0.000000 
0.000000 
0.000000 
0.000000 
0.000000 
0.000000 
0.000000 
0.000000 
0.000000 
0.000000 
0.000000 
0.000000 
0.000000 
0.000000 
0.000000 
0.000000 
0.000000 
0.000000 
0.000000 
0.000000 
0.000000 
0.000000 
0.000000 
0.000000 
0.000000 
0.000000 
0.000000 
0.000000 
0.000000 
0.000000 
0.000000 
0.000000 
0.000000 
0.000000 
0.000000 
0.000000 
0.000000 
0.000000 
0.000000 
0.000000 
0.000000 
0.000000 
0.000000 
0.000000 
0.000000 
0.000000 
0.000000 
0.000000 
0.000000 
0.000000 
0.000000 
0.000000 
0.000000 
0.000000 
0.000000 
0.000000 
0.000000 
0.000000 
0.000000 
0.000000 
0.000000 
0.000001 
0.000001 
0.000001 
0.000001 
0.000001 
0.000001 
0.000001 
0.000001 
0.000001 
0.000001 
0.000001 
0.000001 
0.000001 
0.000002 
0.000002 
0.000002 
0.000002 
0.000002 
0.000002 
0.000003 
0.000003 
0.000003 
0.000003 
0.000004 
0.000004 
0.000004 
0.000004 
0.000005 
0.000005 
0.000006 
0.000006 
0.000006 
0.000007 
0.000007 
0.000008 
0.000009 
0.000009 
0.000010 
0.000011 
0.000012 
0.000012 
0.000013 
0.000014 
0.000015 
0.000016 
0.000018 
0.000019 
0.000020 
0.000022 
0.000023 
0.000025 
0.000026 
0.000028 
0.000030 
0.000032 
0.000034 
0.000037 
0.000039 
0.000042 
0.000044 
0.000047 
0.000050 
0.000054 
0.000057 
0.000061 
0.000065 
0.000069 
0.000073 
0.000077 
0.000082 
0.000087 
0.000093 
0.000098 
0.000104 
0.000110 
0.000117 
0.000123 
0.000131 
0.000138 
0.000146 
0.000154 
0.000163 
0.000172 
0.000182 
0.000192 
0.000202 
0.000213 
0.000225 
0.000237 
0.000249 
0.000262 
0.000276 
0.000290 
0.000305 
0.000321 
0.000337 
0.000354 
0.000371 
0.000389 
0.000408 
0.000428 
0.000449 
0.000470 
0.000492 
0.000515 
0.000539 
0.000564 
0.000589 
0.000616 
0.000643 
0.000671 
0.000701 
0.000731 
0.000762 
0.000795 
0.000828 
0.000863 
0.000898 
0.000935 
0.000972 
0.001011 
0.001051 
0.001092 
0.001135 
0.001178 
0.001223 
0.001269 
0.001316 
0.001364 
0.001413 
0.001464 
0.001516 
0.001569 
0.001624 
0.001679 
0.001736 
0.001794 
0.001853 
0.001914 
0.001975 
0.002038 
0.002102 
0.002168 
0.002234 
0.002302 
0.002370 
0.002440 
0.002511 
0.002583 
0.002656 
0.002731 
0.002806 
0.002882 
0.002959 
0.003037 
0.003116 
0.003196 
0.003277 
0.003358 
0.003441 
0.003524 
0.003607 
0.003692 
0.003777 
0.003862 
0.003948 
0.004035 
0.004122 
0.004209 
0.004297 
0.004384 
0.004473 
0.004561 
0.004649 
0.004738 
0.004826 
0.004915 
0.005003 
0.005091 
0.005179 
0.005267 
0.005354 
0.005441 
0.005528 
0.005614 
0.005699 
0.005784 
0.005868 
0.005951 
0.006034 
0.006115 
0.006196 
0.006276 
0.006354 
0.006432 
0.006508 
0.006583 
0.006657 
0.006730 
0.006801 
0.006870 
0.006939 
0.007005 
0.007070 
0.007134 
0.007195 
0.007255 
0.007313 
0.007370 
0.007424 
0.007476 
0.007527 
0.007575 
0.007622 
0.007666 
0.007708 
0.007748 
0.007786 
0.007822 
0.007855 
0.007887 
0.007915 
0.007942 
0.007966 
0.007988 
0.008007 
0.008024 
0.008039 
0.008051 
0.008061 
0.008068 
0.008073 
0.008076 
0.000000 
0.000000 
0.000000 
0.000000 
0.000000 
0.000000 
0.000000 
0.000000 
0.000000 
0.000000 
0.000000 
0.000000 
0.000000 
0.000000 
0.000000 
0.000000 
0.000000 
0.000000 
0.000000 
0.000000 
0.000000 
0.000000 
0.000000 
0.000000 
0.000000 
0.000000 
0.000000 
0.000000 
0.000000 
0.000000 
0.000000 
0.000000 
0.000000 
0.000000 
0.000000 
0.000000 
0.000000 
0.000000 
0.000000 
0.000000 
0.000000 
0.000000 
0.000000 
0.000000 
0.000000 
0.000000 
0.000000 
0.000000 
0.000000 
0.000000 
0.000000 
0.000000 
0.000000 
0.000000 
0.000000 
0.000000 
0.000000 
0.000000 
0.000000 
0.000000 
0.000000 
0.000000 
0.000000 
0.000000 
0.000000 
0.000001 
0.000001 
0.000001 
0.000001 
0.000001 
0.000001 
0.000001 
0.000001 
0.000001 
0.000001 
0.000001 
0.000001 
0.000001 
0.000002 
0.000002 
0.000002 
0.000002 
0.000002 
0.000002 
0.000003 
0.000003 
0.000003 
0.000003 
0.000004 
0.000004 
0.000004 
0.000004 
0.000005 
0.000005 
0.000006 
0.000006 
0.000007 
0.000007 
0.000008 
0.000008 
0.000009 
0.000009 
0.000010 
0.000011 
0.000012 
0.000013 
0.000014 
0.000015 
0.000016 
0.000017 
0.000018 
0.000019 
0.000021 
0.000022 
0.000024 
0.000026 
0.000027 
0.000029 
0.000031 
0.000034 
0.000036 
0.000038 
0.000041 
0.000044 
0.000047 
0.000050 
0.000053 
0.000057 
0.000060 
0.000064 
0.000068 
0.000073 
0.000077 
0.000082 
0.000087 
0.000093 
0.000098 
0.000104 
0.000111 
0.000118 
0.000125 
0.000132 
0.000140 
0.000148 
0.000157 
0.000166 
0.000175 
0.000186 
0.000196 
0.000207 
0.000219 
0.000231 
0.000244 
0.000257 
0.000271 
0.000285 
0.000301 
0.000316 
0.000333 
0.000350 
0.000369 
0.000387 
0.000407 
0.000428 
0.000449 
0.000471 
0.000494 
0.000519 
0.000544 
0.000570 
0.000597 
0.000625 
0.000654 
0.000684 
0.000715 
0.000748 
0.000781 
0.000816 
0.000852 
0.000889 
0.000928 
0.000967 
0.001008 
0.001051 
0.001094 
0.001139 
0.001186 
0.001233 
0.001283 
0.001333 
0.001385 
0.001439 
0.001494 
0.001551 
0.001609 
0.001668 
0.001729 
0.001792 
0.001856 
0.001922 
0.001989 
0.002058 
0.002128 
0.002200 
0.002273 
0.002348 
0.002425 
0.002503 
0.002582 
0.002663 
0.002746 
0.002830 
0.002915 
0.003002 
0.003091 
0.003180 
0.003271 
0.003364 
0.003457 
0.003552 
0.003649 
0.003746 
0.003845 
0.003945 
0.004045 
0.004147 
0.004250 
0.004354 
0.004459 
0.004565 
0.004671 
0.004778 
0.004886 
0.004995 
0.005104 
0.005213 
0.005324 
0.005434 
0.005545 
0.005656 
0.005768 
0.005879 
0.005991 
0.006102 
0.006214 
0.006325 
0.006436 
0.006547 
0.006657 
0.006767 
0.006877 
0.006986 
0.007094 
0.007202 
0.007309 
0.007414 
0.007519 
0.007623 
0.007726 
0.007828 
0.007928 
0.008027 
0.008125 
0.008221 
0.008315 
0.008408 
0.008499 
0.008589 
0.008677 
0.008762 
0.008846 
0.008928 
0.009008 
0.009085 
0.009161 
0.009234 
0.009305 
0.009373 
0.009439 
0.009503 
0.009563 
0.009622 
0.009678 
0.009731 
0.009781 
0.009829 
0.009874 
0.009916 
0.009955 
0.009991 
0.010024 
0.010055 
0.010082 
0.010107 
0.010128 
0.010146 
0.010162 
0.010174 
0.010183 
0.010189 
0.010192 
0.000000 
0.000000 
0.000000 
0.000000 
0.000000 
0.000000 
0.000000 
0.000000 
0.000000 
0.000000 
0.000000 
0.000000 
0.000000 
0.000000 
0.000000 
0.000000 
0.000000 
0.000000 
0.000000 
0.000000 
0.000000 
0.000000 
0.000000 
0.000000 
0.000000 
0.000000 
0.000000 
0.000000 
0.000000 
0.000000 
0.000000 
0.000000 
0.000000 
0.000000 
0.000000 
0.000000 
0.000000 
0.000000 
0.000000 
0.000000 
0.000000 
0.000000 
0.000000 
0.000000 
0.000000 
0.000000 
0.000000 
0.000000 
0.000000 
0.000000 
0.000000 
0.000000 
0.000000 
0.000000 
0.000000 
0.000000 
0.000000 
0.000000 
0.000000 
0.000000 
0.000000 
0.000000 
0.000000 
0.000001 
0.000001 
0.000001 
0.000001 
0.000001 
0.000001 
0.000001 
0.000001 
0.000001 
0.000001 
0.000001 
0.000001 
0.000001 
0.000002 
0.000002 
0.000002 
0.000002 
0.000002 
0.000002 
0.000003 
0.000003 
0.000003 
0.000003 
0.000004 
0.000004 
0.000004 
0.000005 
0.000005 
0.000005 
0.000006 
0.000006 
0.000007 
0.000007 
0.000008 
0.000009 
0.000009 
0.000010 
0.000011 
0.000012 
0.000013 
0.000013 
0.000014 
0.000016 
0.000017 
0.000018 
0.000019 
0.000021 
0.000022 
0.000024 
0.000026 
0.000027 
0.000029 
0.000031 
0.000034 
0.000036 
0.000038 
0.000041 
0.000044 
0.000047 
0.000050 
0.000054 
0.000057 
0.000061 
0.000065 
0.000069 
0.000074 
0.000078 
0.000084 
0.000089 
0.000095 
0.000100 
0.000107 
0.000113 
0.000120 
0.000128 
0.000136 
0.000144 
0.000153 
0.000162 
0.000171 
0.000181 
0.000192 
0.000203 
0.000215 
0.000227 
0.000240 
0.000253 
0.000268 
0.000282 
0.000298 
0.000314 
0.000331 
0.000349 
0.000368 
0.000387 
0.000407 
0.000429 
0.000451 
0.000474 
0.000498 
0.000523 
0.000549 
0.000576 
0.000605 
0.000634 
0.000665 
0.000696 
0.000729 
0.000764 
0.000799 
0.000836 
0.000874 
0.000914 
0.000955 
0.000997 
0.001041 
0.001086 
0.001133 
0.001182 
0.001232 
0.001283 
0.001337 
0.001392 
0.001448 
0.001507 
0.001567 
0.001628 
0.001692 
0.001757 
0.001824 
0.001893 
0.001964 
0.002036 
0.002111 
0.002187 
0.002265 
0.002345 
0.002427 
0.002511 
0.002597 
0.002684 
0.002774 
0.002865 
0.002958 
0.003053 
0.003150 
0.003248 
0.003349 
0.003451 
0.003555 
0.003661 
0.003768 
0.003877 
0.003988 
0.004100 
0.004214 
0.004330 
0.004447 
0.004565 
0.004685 
0.004806 
0.004929 
0.005052 
0.005177 
0.005303 
0.005431 
0.005559 
0.005688 
0.005818 
0.005949 
0.006081 
0.006214 
0.006347 
0.006480 
0.006614 
0.006749 
0.006884 
0.007019 
0.007154 
0.007289 
0.007424 
0.007560 
0.007695 
0.007829 
0.007964 
0.008097 
0.008231 
0.008364 
0.008496 
0.008627 
0.008757 
0.008886 
0.009014 
0.009142 
0.009267 
0.009392 
0.009515 
0.009636 
0.009756 
0.009874 
0.009990 
0.010105 
0.010217 
0.010328 
0.010436 
0.010542 
0.010646 
0.010747 
0.010846 
0.010943 
0.011037 
0.011128 
0.011216 
0.011302 
0.011384 
0.011464 
0.011541 
0.011615 
0.011685 
0.011753 
0.011817 
0.011878 
0.011935 
0.011989 
0.012040 
0.012087 
0.012131 
0.012172 
0.012208 
0.012241 
0.012271 
0.012297 
0.012319 
0.012338 
0.012353 
0.012364 
0.012371 
0.012375 
0.000000 
0.000000 
0.000000 
0.000000 
0.000000 
0.000000 
0.000000 
0.000000 
0.000000 
0.000000 
0.000000 
0.000000 
0.000000 
0.000000 
0.000000 
0.000000 
0.000000 
0.000000 
0.000000 
0.000000 
0.000000 
0.000000 
0.000000 
0.000000 
0.000000 
0.000000 
0.000000 
0.000000 
0.000000 
0.000000 
0.000000 
0.000000 
0.000000 
0.000000 
0.000000 
0.000000 
0.000000 
0.000000 
0.000000 
0.000000 
0.000000 
0.000000 
0.000000 
0.000000 
0.000000 
0.000000 
0.000000 
0.000000 
0.000000 
0.000000 
0.000000 
0.000000 
0.000000 
0.000000 
0.000000 
0.000000 
0.000000 
0.000000 
0.000000 
0.000000 
0.000000 
0.000001 
0.000001 
0.000001 
0.000001 
0.000001 
0.000001 
0.000001 
0.000001 
0.000001 
0.000001 
0.000001 
0.000001 
0.000002 
0.000002 
0.000002 
0.000002 
0.000002 
0.000002 
0.000002 
0.000003 
0.000003 
0.000003 
0.000003 
0.000004 
0.000004 
0.000004 
0.000005 
0.000005 
0.000006 
0.000006 
0.000007 
0.000007 
0.000008 
0.000008 
0.000009 
0.000010 
0.000010 
0.000011 
0.000012 
0.000013 
0.000014 
0.000015 
0.000016 
0.000017 
0.000019 
0.000020 
0.000021 
0.000023 
0.000025 
0.000027 
0.000028 
0.000031 
0.000033 
0.000035 
0.000038 
0.000040 
0.000043 
0.000046 
0.000049 
0.000052 
0.000056 
0.000060 
0.000064 
0.000068 
0.000073 
0.000078 
0.000083 
0.000088 
0.000094 
0.000100 
0.000106 
0.000113 
0.000120 
0.000128 
0.000135 
0.000144 
0.000153 
0.000162 
0.000172 
0.000182 
0.000193 
0.000204 
0.000216 
0.000229 
0.000242 
0.000256 
0.000271 
0.000286 
0.000302 
0.000319 
0.000337 
0.000356 
0.000375 
0.000395 
0.000416 
0.000439 
0.000462 
0.000486 
0.000511 
0.000538 
0.000565 
0.000594 
0.000624 
0.000655 
0.000687 
0.000721 
0.000756 
0.000792 
0.000830 
0.000870 
0.000910 
0.000953 
0.000997 
0.001042 
0.001089 
0.001138 
0.001188 
0.001241 
0.001295 
0.001350 
0.001408 
0.001468 
0.001529 
0.001592 
0.001658 
0.001725 
0.001794 
0.001866 
0.001939 
0.002015 
0.002092 
0.002172 
0.002254 
0.002338 
0.002424 
0.002512 
0.002603 
0.002696 
0.002791 
0.002888 
0.002987 
0.003089 
0.003193 
0.003299 
0.003407 
0.003518 
0.003630 
0.003745 
0.003862 
0.003981 
0.004102 
0.004226 
0.004351 
0.004478 
0.004607 
0.004739 
0.004872 
0.005007 
0.005143 
0.005282 
0.005422 
0.005564 
0.005708 
0.005853 
0.005999 
0.006147 
0.006296 
0.006447 
0.006598 
0.006751 
0.006905 
0.007060 
0.007216 
0.007372 
0.007530 
0.007688 
0.007846 
0.008005 
0.008164 
0.008324 
0.008483 
0.008643 
0.008803 
0.008962 
0.009122 
0.009281 
0.009439 
0.009597 
0.009754 
0.009911 
0.010067 
0.010222 
0.010375 
0.010528 
0.010679 
0.010829 
0.010977 
0.011124 
0.011269 
0.011412 
0.011553 
0.011692 
0.011829 
0.011964 
0.012096 
0.012227 
0.012354 
0.012479 
0.012601 
0.012721 
0.012837 
0.012951 
0.013061 
0.013168 
0.013273 
0.013373 
0.013471 
0.013565 
0.013655 
0.013742 
0.013825 
0.013904 
0.013979 
0.014051 
0.014119 
0.014183 
0.014242 
0.014298 
0.014350 
0.014397 
0.014440 
0.014479 
0.014514 
0.014544 
0.014570 
0.014592 
0.014610 
0.014623 
0.014632 
0.014636 
0.000000 
0.000000 
0.000000 
0.000000 
0.000000 
0.000000 
0.000000 
0.000000 
0.000000 
0.000000 
0.000000 
0.000000 
0.000000 
0.000000 
0.000000 
0.000000 
0.000000 
0.000000 
0.000000 
0.000000 
0.000000 
0.000000 
0.000000 
0.000000 
0.000000 
0.000000 
0.000000 
0.000000 
0.000000 
0.000000 
0.000000 
0.000000 
0.000000 
0.000000 
0.000000 
0.000000 
0.000000 
0.000000 
0.000000 
0.000000 
0.000000 
0.000000 
0.000000 
0.000000 
0.000000 
0.000000 
0.000000 
0.000000 
0.000000 
0.000000 
0.000000 
0.000000 
0.000000 
0.000000 
0.000000 
0.000000 
0.000000 
0.000000 
0.000000 
0.000001 
0.000001 
0.000001 
0.000001 
0.000001 
0.000001 
0.000001 
0.000001 
0.000001 
0.000001 
0.000001 
0.000001 
0.000001 
0.000002 
0.000002 
0.000002 
0.000002 
0.000002 
0.000002 
0.000003 
0.000003 
0.000003 
0.000003 
0.000004 
0.000004 
0.000004 
0.000005 
0.000005 
0.000006 
0.000006 
0.000007 
0.000007 
0.000008 
0.000008 
0.000009 
0.000010 
0.000010 
0.000011 
0.000012 
0.000013 
0.000014 
0.000015 
0.000016 
0.000018 
0.000019 
0.000020 
0.000022 
0.000023 
0.000025 
0.000027 
0.000029 
0.000031 
0.000033 
0.000036 
0.000038 
0.000041 
0.000044 
0.000047 
0.000050 
0.000054 
0.000058 
0.000062 
0.000066 
0.000070 
0.000075 
0.000080 
0.000085 
0.000091 
0.000097 
0.000103 
0.000110 
0.000117 
0.000125 
0.000132 
0.000141 
0.000150 
0.000159 
0.000169 
0.000179 
0.000190 
0.000202 
0.000214 
0.000226 
0.000240 
0.000254 
0.000269 
0.000284 
0.000301 
0.000318 
0.000336 
0.000355 
0.000374 
0.000395 
0.000417 
0.000440 
0.000463 
0.000488 
0.000514 
0.000541 
0.000570 
0.000599 
0.000630 
0.000662 
0.000696 
0.000731 
0.000767 
0.000805 
0.000845 
0.000886 
0.000928 
0.000973 
0.001019 
0.001066 
0.001116 
0.001167 
0.001220 
0.001275 
0.001332 
0.001391 
0.001453 
0.001516 
0.001581 
0.001648 
0.001718 
0.001790 
0.001863 
0.001940 
0.002018 
0.002099 
0.002183 
0.002268 
0.002356 
0.002447 
0.002540 
0.002636 
0.002734 
0.002834 
0.002937 
0.003043 
0.003151 
0.003262 
0.003375 
0.003491 
0.003610 
0.003731 
0.003854 
0.003980 
0.004109 
0.004240 
0.004374 
0.004510 
0.004649 
0.004790 
0.004933 
0.005079 
0.005227 
0.005377 
0.005530 
0.005685 
0.005841 
0.006000 
0.006161 
0.006324 
0.006489 
0.006656 
0.006825 
0.006995 
0.007166 
0.007340 
0.007515 
0.007691 
0.007868 
0.008047 
0.008226 
0.008407 
0.008589 
0.008771 
0.008954 
0.009138 
0.009322 
0.009507 
0.009692 
0.009877 
0.010062 
0.010247 
0.010432 
0.010616 
0.010800 
0.010984 
0.011167 
0.011349 
0.011530 
0.011710 
0.011889 
0.012067 
0.012244 
0.012418 
0.012592 
0.012763 
0.012933 
0.013100 
0.013266 
0.013429 
0.013590 
0.013748 
0.013904 
0.014057 
0.014208 
0.014355 
0.014499 
0.014640 
0.014778 
0.014913 
0.015044 
0.015172 
0.015295 
0.015416 
0.015532 
0.015644 
0.015753 
0.015857 
0.015957 
0.016053 
0.016144 
0.016232 
0.016314 
0.016392 
0.016466 
0.016535 
0.016599 
0.016659 
0.016713 
0.016763 
0.016808 
0.016848 
0.016883 
0.016913 
0.016939 
0.016959 
0.016974 
0.016984 
0.016989 
0.000000 
0.000000 
0.000000 
0.000000 
0.000000 
0.000000 
0.000000 
0.000000 
0.000000 
0.000000 
0.000000 
0.000000 
0.000000 
0.000000 
0.000000 
0.000000 
0.000000 
0.000000 
0.000000 
0.000000 
0.000000 
0.000000 
0.000000 
0.000000 
0.000000 
0.000000 