# vtk DataFile Version 3.0
results.vtk
ASCII
DATASET RECTILINEAR_GRID
DIMENSIONS 301 301 1
X_COORDINATES 301 double
0.000000 0.003333 0.006667 0.010000 0.013333 0.016667 0.020000 0.023333 0.026667 0.030000 0.033333 0.036667 0.040000 0.043333 0.046667 0.050000 0.053333 0.056667 0.060000 0.063333 0.066667 0.070000 0.073333 0.076667 0.080000 0.083333 0.086667 0.090000 0.093333 0.096667 0.100000 0.103333 0.106667 0.110000 0.113333 0.116667 0.120000 0.123333 0.126667 0.130000 0.133333 0.136667 0.140000 0.143333 0.146667 0.150000 0.153333 0.156667 0.160000 0.163333 0.166667 0.170000 0.173333 0.176667 0.180000 0.183333 0.186667 0.190000 0.193333 0.196667 0.200000 0.203333 0.206667 0.210000 0.213333 0.216667 0.220000 0.223333 0.226667 0.230000 0.233333 0.236667 0.240000 0.243333 0.246667 0.250000 0.253333 0.256667 0.260000 0.263333 0.266667 0.270000 0.273333 0.276667 0.280000 0.283333 0.286667 0.290000 0.293333 0.296667 0.300000 0.303333 0.306667 0.310000 0.313333 0.316667 0.320000 0.323333 0.326667 0.330000 0.333333 0.336667 0.340000 0.343333 0.346667 0.350000 0.353333 0.356667 0.360000 0.363333 0.366667 0.370000 0.373333 0.376667 0.380000 0.383333 0.386667 0.390000 0.393333 0.396667 0.400000 0.403333 0.406667 0.410000 0.413333 0.416667 0.420000 0.423333 0.426667 0.430000 0.433333 0.436667 0.440000 0.443333 0.446667 0.450000 0.453333 0.456667 0.460000 0.463333 0.466667 0.470000 0.473333 0.476667 0.480000 0.483333 0.486667 0.490000 0.493333 0.496667 0.500000 0.503333 0.506667 0.510000 0.513333 0.516667 0.520000 0.523333 0.526667 0.530000 0.533333 0.536667 0.540000 0.543333 0.546667 0.550000 0.553333 0.556667 0.560000 0.563333 0.566667 0.570000 0.573333 0.576667 0.580000 0.583333 0.586667 0.590000 0.593333 0.596667 0.600000 0.603333 0.606667 0.610000 0.613333 0.616667 0.620000 0.623333 0.626667 0.630000 0.633333 0.636667 0.640000 0.643333 0.646667 0.650000 0.653333 0.656667 0.660000 0.663333 0.666667 0.670000 0.673333 0.676667 0.680000 0.683333 0.686667 0.690000 0.693333 0.696667 0.700000 0.703333 0.706667 0.710000 0.713333 0.716667 0.720000 0.723333 0.726667 0.730000 0.733333 0.736667 0.740000 0.743333 0.746667 0.750000 0.753333 0.756667 0.760000 0.763333 0.766667 0.770000 0.773333 0.776667 0.780000 0.783333 0.786667 0.790000 0.793333 0.796667 0.800000 0.803333 0.806667 0.810000 0.813333 0.816667 0.820000 0.823333 0.826667 0.830000 0.833333 0.836667 0.840000 0.843333 0.846667 0.850000 0.853333 0.856667 0.860000 0.863333 0.866667 0.870000 0.873333 0.876667 0.880000 0.883333 0.886667 0.890000 0.893333 0.896667 0.900000 0.903333 0.906667 0.910000 0.913333 0.916667 0.920000 0.923333 0.926667 0.930000 0.933333 0.936667 0.940000 0.943333 0.946667 0.950000 0.953333 0.956667 0.960000 0.963333 0.966667 0.970000 0.973333 0.976667 0.980000 0.983333 0.986667 0.990000 0.993333 0.996667 1.000000 
Y_COORDINATES 301 double
0.000000 0.003333 0.006667 0.010000 0.013333 0.016667 0.020000 0.023333 0.026667 0.030000 0.033333 0.036667 0.040000 0.043333 0.046667 0.050000 0.053333 0.056667 0.060000 0.063333 0.066667 0.070000 0.073333 0.076667 0.080000 0.083333 0.086667 0.090000 0.093333 0.096667 0.100000 0.103333 0.106667 0.110000 0.113333 0.116667 0.120000 0.123333 0.126667 0.130000 0.133333 0.136667 0.140000 0.143333 0.146667 0.150000 0.153333 0.156667 0.160000 0.163333 0.166667 0.170000 0.173333 0.176667 0.180000 0.183333 0.186667 0.190000 0.193333 0.196667 0.200000 0.203333 0.206667 0.210000 0.213333 0.216667 0.220000 0.223333 0.226667 0.230000 0.233333 0.236667 0.240000 0.243333 0.246667 0.250000 0.253333 0.256667 0.260000 0.263333 0.266667 0.270000 0.273333 0.276667 0.280000 0.283333 0.286667 0.290000 0.293333 0.296667 0.300000 0.303333 0.306667 0.310000 0.313333 0.316667 0.320000 0.323333 0.326667 0.330000 0.333333 0.336667 0.340000 0.343333 0.346667 0.350000 0.353333 0.356667 0.360000 0.363333 0.366667 0.370000 0.373333 0.376667 0.380000 0.383333 0.386667 0.390000 0.393333 0.396667 0.400000 0.403333 0.406667 0.410000 0.413333 0.416667 0.420000 0.423333 0.426667 0.430000 0.433333 0.436667 0.440000 0.443333 0.446667 0.450000 0.453333 0.456667 0.460000 0.463333 0.466667 0.470000 0.473333 0.476667 0.480000 0.483333 0.486667 0.490000 0.493333 0.496667 0.500000 0.503333 0.506667 0.510000 0.513333 0.516667 0.520000 0.523333 0.526667 0.530000 0.533333 0.536667 0.540000 0.543333 0.546667 0.550000 0.553333 0.556667 0.560000 0.563333 0.566667 0.570000 0.573333 0.576667 0.580000 0.583333 0.586667 0.590000 0.593333 0.596667 0.600000 0.603333 0.606667 0.610000 0.613333 0.616667 0.620000 0.623333 0.626667 0.630000 0.633333 0.636667 0.640000 0.643333 0.646667 0.650000 0.653333 0.656667 0.660000 0.663333 0.666667 0.670000 0.673333 0.676667 0.680000 0.683333 0.686667 0.690000 0.693333 0.696667 0.700000 0.703333 0.706667 0.710000 0.713333 0.716667 0.720000 0.723333 0.726667 0.730000 0.733333 0.736667 0.740000 0.743333 0.746667 0.750000 0.753333 0.756667 0.760000 0.763333 0.766667 0.770000 0.773333 0.776667 0.780000 0.783333 0.786667 0.790000 0.793333 0.796667 0.800000 0.803333 0.806667 0.810000 0.813333 0.816667 0.820000 0.823333 0.826667 0.830000 0.833333 0.836667 0.840000 0.843333 0.846667 0.850000 0.853333 0.856667 0.860000 0.863333 0.866667 0.870000 0.873333 0.876667 0.880000 0.883333 0.886667 0.890000 0.893333 0.896667 0.900000 0.903333 0.906667 0.910000 0.913333 0.916667 0.920000 0.923333 0.926667 0.930000 0.933333 0.936667 0.940000 0.943333 0.946667 0.950000 0.953333 0.956667 0.960000 0.963333 0.966667 0.970000 0.973333 0.976667 0.980000 0.983333 0.986667 0.990000 0.993333 0.996667 1.000000 
Z_COORDINATES 1 double
0
POINT_DATA 90601 
FIELD FieldData 1 
Concentração 1 90601 double 
0.000000 
0.000000 
0.000000 
0.000000 
0.000000 
0.000000 
0.000000 
0.000000 
0.000000 
0.000000 
0.000000 
0.000000 
0.000000 
0.000000 
0.000000 
0.000000 
0.000000 
0.000000 
0.000000 
0.000000 
0.000000 
0.000000 
0.000000 
0.000000 
0.000000 
0.000000 
0.000000 
0.000000 
0.000000 
0.000000 
0.000000 
0.000000 
0.000000 
0.000000 
0.000000 
0.000000 
0.000000 
0.000000 
0.000000 
0.000000 
0.000000 
0.000000 
0.000000 
0.000000 
0.000000 
0.000000 
0.000000 
0.000000 
0.000000 
0.000000 
0.000000 
0.000000 
0.000000 
0.000000 
0.000000 
0.000000 
0.000001 
0.000001 
0.000001 
0.000001 
0.000001 
0.000001 
0.000001 
0.000001 
0.000001 
0.000001 
0.000001 
0.000001 
0.000001 
0.000002 
0.000002 
0.000002 
0.000002 
0.000002 
0.000002 
0.000003 
0.000003 
0.000003 
0.000003 
0.000004 
0.000004 
0.000004 
0.000004 
0.000005 
0.000005 
0.000006 
0.000006 
0.000007 
0.000007 
0.000008 
0.000008 
0.000009 
0.000009 
0.000010 
0.000011 
0.000012 
0.000013 
0.000013 
0.000014 
0.000016 
0.000017 
0.000018 
0.000019 
0.000020 
0.000022 
0.000023 
0.000025 
0.000027 
0.000029 
0.000031 
0.000033 
0.000035 
0.000037 
0.000040 
0.000042 
0.000045 
0.000048 
0.000051 
0.000054 
0.000058 
0.000062 
0.000065 
0.000070 
0.000074 
0.000079 
0.000083 
0.000088 
0.000094 
0.000099 
0.000105 
0.000112 
0.000118 
0.000125 
0.000132 
0.000140 
0.000148 
0.000156 
0.000165 
0.000174 
0.000184 
0.000194 
0.000205 
0.000216 
0.000227 
0.000239 
0.000252 
0.000265 
0.000279 
0.000293 
0.000308 
0.000324 
0.000340 
0.000357 
0.000375 
0.000393 
0.000412 
0.000432 
0.000452 
0.000473 
0.000495 
0.000518 
0.000542 
0.000567 
0.000592 
0.000618 
0.000645 
0.000673 
0.000702 
0.000732 
0.000763 
0.000795 
0.000828 
0.000862 
0.000897 
0.000933 
0.000970 
0.001008 
0.001047 
0.001087 
0.001128 
0.001170 
0.001214 
0.001258 
0.001304 
0.001350 
0.001398 
0.001447 
0.001497 
0.001548 
0.001600 
0.001653 
0.001707 
0.001763 
0.001819 
0.001877 
0.001935 
0.001995 
0.002056 
0.002117 
0.002180 
0.002244 
0.002308 
0.002374 
0.002440 
0.002508 
0.002576 
0.002645 
0.002715 
0.002786 
0.002858 
0.002930 
0.003004 
0.003078 
0.003152 
0.003227 
0.003303 
0.003380 
0.003457 
0.003534 
0.003612 
0.003691 
0.003770 
0.003849 
0.003928 
0.004008 
0.004088 
0.004169 
0.004249 
0.004330 
0.004411 
0.004491 
0.004572 
0.004653 
0.004734 
0.004814 
0.004895 
0.004975 
0.005055 
0.005135 
0.005214 
0.005293 
0.005372 
0.005450 
0.005528 
0.005605 
0.005682 
0.005758 
0.005834 
0.005908 
0.005982 
0.006056 
0.006128 
0.006200 
0.006271 
0.006341 
0.006410 
0.006478 
0.006545 
0.006611 
0.006675 
0.006739 
0.006802 
0.006863 
0.006924 
0.006983 
0.007040 
0.007097 
0.007152 
0.007206 
0.007259 
0.007310 
0.007359 
0.007408 
0.007455 
0.007500 
0.007544 
0.007586 
0.007627 
0.007666 
0.007704 
0.007740 
0.007774 
0.007807 
0.007838 
0.007868 
0.007896 
0.007922 
0.007946 
0.007969 
0.007990 
0.008009 
0.008027 
0.008043 
0.008057 
0.008069 
0.008080 
0.008089 
0.008096 
0.008101 
0.008105 
0.008107 
0.000000 
0.000000 
0.000000 
0.000000 
0.000000 
0.000000 
0.000000 
0.000000 
0.000000 
0.000000 
0.000000 
0.000000 
0.000000 
0.000000 
0.000000 
0.000000 
0.000000 
0.000000 
0.000000 
0.000000 
0.000000 
0.000000 
0.000000 
0.000000 
0.000000 
0.000000 
0.000000 
0.000000 
0.000000 
0.000000 
0.000000 
0.000000 
0.000000 
0.000000 
0.000000 
0.000000 
0.000000 
0.000000 
0.000000 
0.000000 
0.000000 
0.000000 
0.000000 
0.000000 
0.000000 
0.000000 
0.000000 
0.000000 
0.000001 
0.000001 
0.000001 
0.000001 
0.000001 
0.000001 
0.000001 
0.000001 
0.000001 
0.000001 
0.000001 
0.000001 
0.000002 
0.000002 
0.000002 
0.000002 
0.000002 
0.000002 
0.000003 
0.000003 
0.000003 
0.000003 
0.000003 
0.000004 
0.000004 
0.000004 
0.000005 
0.000005 
0.000006 
0.000006 
0.000007 
0.000007 
0.000008 
0.000008 
0.000009 
0.000010 
0.000010 
0.000011 
0.000012 
0.000013 
0.000014 
0.000015 
0.000016 
0.000018 
0.000019 
0.000020 
0.000022 
0.000023 
0.000025 
0.000027 
0.000029 
0.000031 
0.000033 
0.000036 
0.000038 
0.000041 
0.000044 
0.000047 
0.000050 
0.000054 
0.000058 
0.000061 
0.000066 
0.000070 
0.000075 
0.000080 
0.000085 
0.000091 
0.000096 
0.000103 
0.000109 
0.000116 
0.000124 
0.000132 
0.000140 
0.000149 
0.000158 
0.000167 
0.000178 
0.000188 
0.000200 
0.000212 
0.000224 
0.000238 
0.000251 
0.000266 
0.000281 
0.000297 
0.000314 
0.000332 
0.000350 
0.000370 
0.000390 
0.000411 
0.000434 
0.000457 
0.000481 
0.000506 
0.000533 
0.000561 
0.000589 
0.000619 
0.000651 
0.000683 
0.000717 
0.000752 
0.000789 
0.000827 
0.000867 
0.000908 
0.000951 
0.000995 
0.001041 
0.001088 
0.001138 
0.001189 
0.001241 
0.001296 
0.001352 
0.001410 
0.001470 
0.001532 
0.001596 
0.001662 
0.001730 
0.001800 
0.001872 
0.001946 
0.002022 
0.002101 
0.002181 
0.002264 
0.002348 
0.002435 
0.002524 
0.002616 
0.002709 
0.002805 
0.002903 
0.003003 
0.003105 
0.003209 
0.003316 
0.003425 
0.003536 
0.003649 
0.003764 
0.003881 
0.004001 
0.004122 
0.004246 
0.004371 
0.004499 
0.004628 
0.004760 
0.004893 
0.005028 
0.005165 
0.005303 
0.005443 
0.005585 
0.005729 
0.005874 
0.006020 
0.006168 
0.006317 
0.006468 
0.006620 
0.006773 
0.006927 
0.007082 
0.007238 
0.007395 
0.007552 
0.007711 
0.007870 
0.008029 
0.008190 
0.008350 
0.008511 
0.008672 
0.008834 
0.008995 
0.009157 
0.009318 
0.009480 
0.009641 
0.009801 
0.009962 
0.010122 
0.010281 
0.010440 
0.010598 
0.010755 
0.010911 
0.011066 
0.011221 
0.011374 
0.011526 
0.011677 
0.011826 
0.011974 
0.012120 
0.012265 
0.012408 
0.012549 
0.012689 
0.012826 
0.012962 
0.013096 
0.013228 
0.013357 
0.013484 
0.013609 
0.013732 
0.013852 
0.013970 
0.014086 
0.014198 
0.014308 
0.014416 
0.014521 
0.014623 
0.014722 
0.014818 
0.014912 
0.015002 
0.015089 
0.015174 
0.015255 
0.015333 
0.015408 
0.015480 
0.015549 
0.015614 
0.015677 
0.015735 
0.015791 
0.015843 
0.015892 
0.015937 
0.015979 
0.016018 
0.016053 
0.016085 
0.016113 
0.016138 
0.016159 
0.016176 
0.016190 
0.016201 
0.016208 
0.016212 
0.000000 
0.000000 
0.000000 
0.000000 
0.000000 
0.000000 
0.000000 
0.000000 
0.000000 
0.000000 
0.000000 
0.000000 
0.000000 
0.000000 
0.000000 
0.000000 
0.000000 
0.000000 
0.000000 
0.000000 
0.000000 
0.000000 
0.000000 
0.000000 
0.000000 
0.000000 
0.000000 
0.000000 
0.000000 
0.000000 
0.000000 
0.000000 
0.000000 
0.000000 
0.000000 
0.000000 
0.000000 
0.000000 
0.000000 
0.000000 
0.000000 
0.000000 
0.000000 
0.000001 
0.000001 
0.000001 
0.000001 
0.000001 
0.000001 
0.000001 
0.000001 
0.000001 
0.000001 
0.000001 
0.000001 
0.000002 
0.000002 
0.000002 
0.000002 
0.000002 
0.000002 
0.000003 
0.000003 
0.000003 
0.000003 
0.000004 
0.000004 
0.000004 
0.000004 
0.000005 
0.000005 
0.000006 
0.000006 
0.000007 
0.000007 
0.000008 
0.000009 
0.000009 
0.000010 
0.000011 
0.000012 
0.000013 
0.000014 
0.000015 
0.000016 
0.000017 
0.000018 
0.000020 
0.000021 
0.000023 
0.000025 
0.000027 
0.000029 
0.000031 
0.000033 
0.000036 
0.000038 
0.000041 
0.000044 
0.000047 
0.000051 
0.000054 
0.000058 
0.000062 
0.000066 
0.000071 
0.000076 
0.000081 
0.000087 
0.000093 
0.000099 
0.000106 
0.000113 
0.000121 
0.000128 
0.000137 
0.000146 
0.000155 
0.000165 
0.000176 
0.000187 
0.000199 
0.000211 
0.000225 
0.000239 
0.000253 
0.000269 
0.000285 
0.000302 
0.000320 
0.000339 
0.000359 
0.000380 
0.000402 
0.000425 
0.000449 
0.000475 
0.000501 
0.000529 
0.000559 
0.000589 
0.000622 
0.000655 
0.000690 
0.000727 
0.000765 
0.000805 
0.000847 
0.000890 
0.000936 
0.000983 
0.001032 
0.001083 
0.001136 
0.001192 
0.001249 
0.001309 
0.001371 
0.001436 
0.001502 
0.001572 
0.001643 
0.001717 
0.001794 
0.001874 
0.001956 
0.002041 
0.002129 
0.002219 
0.002313 
0.002409 
0.002509 
0.002611 
0.002716 
0.002825 
0.002936 
0.003051 
0.003169 
0.003290 
0.003415 
0.003542 
0.003673 
0.003807 
0.003945 
0.004085 
0.004229 
0.004377 
0.004527 
0.004681 
0.004838 
0.004999 
0.005162 
0.005329 
0.005499 
0.005673 
0.005849 
0.006029 
0.006211 
0.006397 
0.006586 
0.006777 
0.006972 
0.007169 
0.007370 
0.007572 
0.007778 
0.007986 
0.008197 
0.008410 
0.008625 
0.008843 
0.009063 
0.009285 
0.009509 
0.009735 
0.009963 
0.010192 
0.010424 
0.010656 
0.010890 
0.011126 
0.011362 
0.011600 
0.011838 
0.012078 
0.012318 
0.012559 
0.012800 
0.013041 
0.013283 
0.013525 
0.013767 
0.014009 
0.014251 
0.014492 
0.014733 
0.014973 
0.015213 
0.015451 
0.015689 
0.015925 
0.016161 
0.016395 
0.016627 
0.016858 
0.017087 
0.017315 
0.017540 
0.017763 
0.017985 
0.018203 
0.018420 
0.018634 
0.018845 
0.019054 
0.019260 
0.019463 
0.019663 
0.019860 
0.020053 
0.020244 
0.020430 
0.020614 
0.020794 
0.020970 
0.021142 
0.021310 
0.021475 
0.021636 
0.021792 
0.021945 
0.022093 
0.022237 
0.022376 
0.022511 
0.022642 
0.022768 
0.022889 
0.023006 
0.023118 
0.023226 
0.023328 
0.023426 
0.023519 
0.023607 
0.023689 
0.023767 
0.023840 
0.023908 
0.023971 
0.024028 
0.024081 
0.024128 
0.024170 
0.024207 
0.024238 
0.024265 
0.024286 
0.024302 
0.024312 
0.024317 
0.000000 
0.000000 
0.000000 
0.000000 
0.000000 
0.000000 
0.000000 
0.000000 
0.000000 
0.000000 
0.000000 
0.000000 
0.000000 
0.000000 
0.000000 
0.000000 
0.000000 
0.000000 
0.000000 
0.000000 
0.000000 
0.000000 
0.000000 
0.000000 
0.000000 
0.000000 
0.000000 
0.000000 
0.000000 
0.000000 
0.000000 
0.000000 
0.000000 
0.000000 
0.000000 
0.000000 
0.000000 
0.000000 
0.000000 
0.000000 
0.000001 
0.000001 
0.000001 
0.000001 
0.000001 
0.000001 
0.000001 
0.000001 
0.000001 
0.000001 
0.000001 
0.000001 
0.000002 
0.000002 
0.000002 
0.000002 
0.000002 
0.000002 
0.000003 
0.000003 
0.000003 
0.000003 
0.000004 
0.000004 
0.000004 
0.000005 
0.000005 
0.000006 
0.000006 
0.000007 
0.000007 
0.000008 
0.000008 
0.000009 
0.000010 
0.000011 
0.000012 
0.000012 
0.000013 
0.000015 
0.000016 
0.000017 
0.000018 
0.000020 
0.000021 
0.000023 
0.000025 
0.000027 
0.000029 
0.000031 
0.000033 
0.000036 
0.000039 
0.000042 
0.000045 
0.000048 
0.000051 
0.000055 
0.000059 
0.000064 
0.000068 
0.000073 
0.000078 
0.000084 
0.000090 
0.000096 
0.000103 
0.000110 
0.000117 
0.000125 
0.000134 
0.000143 
0.000152 
0.000163 
0.000173 
0.000185 
0.000197 
0.000209 
0.000223 
0.000237 
0.000252 
0.000268 
0.000285 
0.000303 
0.000322 
0.000341 
0.000362 
0.000384 
0.000407 
0.000431 
0.000457 
0.000484 
0.000512 
0.000542 
0.000573 
0.000605 
0.000640 
0.000676 
0.000713 
0.000753 
0.000794 
0.000837 
0.000882 
0.000930 
0.000979 
0.001030 
0.001084 
0.001140 
0.001199 
0.001260 
0.001323 
0.001390 
0.001458 
0.001530 
0.001604 
0.001682 
0.001762 
0.001845 
0.001932 
0.002022 
0.002115 
0.002211 
0.002311 
0.002414 
0.002521 
0.002631 
0.002745 
0.002863 
0.002985 
0.003110 
0.003240 
0.003373 
0.003511 
0.003652 
0.003798 
0.003947 
0.004101 
0.004260 
0.004422 
0.004589 
0.004760 
0.004935 
0.005115 
0.005299 
0.005488 
0.005681 
0.005878 
0.006080 
0.006286 
0.006496 
0.006711 
0.006930 
0.007154 
0.007382 
0.007613 
0.007850 
0.008090 
0.008334 
0.008583 
0.008835 
0.009092 
0.009352 
0.009616 
0.009883 
0.010154 
0.010429 
0.010707 
0.010989 
0.011273 
0.011561 
0.011852 
0.012146 
0.012442 
0.012741 
0.013043 
0.013347 
0.013653 
0.013961 
0.014272 
0.014584 
0.014898 
0.015213 
0.015530 
0.015848 
0.016167 
0.016487 
0.016808 
0.017129 
0.017451 
0.017773 
0.018095 
0.018418 
0.018740 
0.019061 
0.019383 
0.019703 
0.020023 
0.020341 
0.020659 
0.020975 
0.021289 
0.021602 
0.021913 
0.022223 
0.022530 
0.022834 
0.023136 
0.023436 
0.023733 
0.024027 
0.024318 
0.024605 
0.024889 
0.025170 
0.025447 
0.025721 
0.025990 
0.026256 
0.026517 
0.026774 
0.027026 
0.027274 
0.027518 
0.027756 
0.027990 
0.028219 
0.028442 
0.028660 
0.028873 
0.029081 
0.029283 
0.029480 
0.029670 
0.029855 
0.030034 
0.030207 
0.030375 
0.030536 
0.030690 
0.030839 
0.030981 
0.031117 
0.031247 
0.031370 
0.031486 
0.031596 
0.031699 
0.031796 
0.031886 
0.031969 
0.032045 
0.032115 
0.032177 
0.032233 
0.032282 
0.032323 
0.032358 
0.032386 
0.032407 
0.032421 
0.032428 
0.000000 
0.000000 
0.000000 
0.000000 
0.000000 
0.000000 
0.000000 
0.000000 
0.000000 
0.000000 
0.000000 
0.000000 
0.000000 
0.000000 
0.000000 
0.000000 
0.000000 
0.000000 
0.000000 
0.000000 
0.000000 
0.000000 
0.000000 
0.000000 
0.000000 
0.000000 
0.000000 
0.000000 
0.000000 
0.000000 
0.000000 
0.000000 
0.000000 
0.000000 
0.000000 
0.000000 
0.000000 
0.000001 
0.000001 
0.000001 
0.000001 
0.000001 
0.000001 
0.000001 
0.000001 
0.000001 
0.000001 
0.000001 
0.000001 
0.000002 
0.000002 
0.000002 
0.000002 
0.000002 
0.000002 
0.000003 
0.000003 
0.000003 
0.000003 
0.000004 
0.000004 
0.000004 
0.000005 
0.000005 
0.000006 
0.000006 
0.000007 
0.000007 
0.000008 
0.000008 
0.000009 
0.000010 
0.000011 
0.000012 
0.000012 
0.000013 
0.000015 
0.000016 
0.000017 
0.000018 
0.000020 
0.000022 
0.000023 
0.000025 
0.000027 
0.000029 
0.000031 
0.000034 
0.000037 
0.000039 
0.000042 
0.000046 
0.000049 
0.000053 
0.000057 
0.000061 
0.000065 
0.000070 
0.000075 
0.000081 
0.000086 
0.000093 
0.000099 
0.000106 
0.000114 
0.000122 
0.000130 
0.000139 
0.000149 
0.000159 
0.000170 
0.000181 
0.000193 
0.000206 
0.000220 
0.000234 
0.000249 
0.000266 
0.000283 
0.000301 
0.000320 
0.000340 
0.000361 
0.000384 
0.000408 
0.000433 
0.000459 
0.000487 
0.000516 
0.000547 
0.000579 
0.000613 
0.000649 
0.000686 
0.000726 
0.000767 
0.000810 
0.000856 
0.000903 
0.000953 
0.001006 
0.001060 
0.001117 
0.001177 
0.001240 
0.001305 
0.001373 
0.001444 
0.001518 
0.001595 
0.001675 
0.001759 
0.001846 
0.001936 
0.002030 
0.002128 
0.002229 
0.002335 
0.002444 
0.002557 
0.002675 
0.002796 
0.002922 
0.003052 
0.003187 
0.003327 
0.003471 
0.003619 
0.003773 
0.003931 
0.004094 
0.004262 
0.004435 
0.004614 
0.004797 
0.004986 
0.005180 
0.005379 
0.005584 
0.005794 
0.006009 
0.006230 
0.006456 
0.006688 
0.006925 
0.007168 
0.007416 
0.007670 
0.007929 
0.008194 
0.008464 
0.008739 
0.009020 
0.009306 
0.009598 
0.009894 
0.010196 
0.010503 
0.010815 
0.011131 
0.011453 
0.011780 
0.012111 
0.012446 
0.012786 
0.013131 
0.013480 
0.013832 
0.014189 
0.014550 
0.014914 
0.015282 
0.015653 
0.016027 
0.016405 
0.016785 
0.017168 
0.017554 
0.017942 
0.018333 
0.018725 
0.019119 
0.019515 
0.019913 
0.020312 
0.020711 
0.021112 
0.021514 
0.021915 
0.022318 
0.022720 
0.023122 
0.023524 
0.023925 
0.024326 
0.024726 
0.025124 
0.025522 
0.025918 
0.026312 
0.026704 
0.027094 
0.027481 
0.027866 
0.028249 
0.028628 
0.029004 
0.029377 
0.029747 
0.030113 
0.030475 
0.030833 
0.031186 
0.031536 
0.031880 
0.032220 
0.032555 
0.032885 
0.033210 
0.033530 
0.033844 
0.034152 
0.034454 
0.034751 
0.035041 
0.035325 
0.035603 
0.035874 
0.036138 
0.036396 
0.036647 
0.036891 
0.037128 
0.037358 
0.037580 
0.037795 
0.038002 
0.038202 
0.038394 
0.038579 
0.038755 
0.038924 
0.039085 
0.039237 
0.039382 
0.039518 
0.039646 
0.039766 
0.039877 
0.039980 
0.040075 
0.040161 
0.040239 
0.040308 
0.040368 
0.040420 
0.040464 
0.040498 
0.040524 
0.040541 
0.040550 
0.000000 
0.000000 
0.000000 
0.000000 
0.000000 
0.000000 
0.000000 
0.000000 
0.000000 
0.000000 
0.000000 
0.000000 
0.000000 
0.000000 
0.000000 
0.000000 
0.000000 
0.000000 
0.000000 
0.000000 
0.000000 
0.000000 
0.000000 
0.000000 
0.000000 
0.000000 
0.000000 
0.000000 
0.000000 
0.000000 
0.000000 
0.000000 
0.000000 
0.000000 
0.000000 
0.000001 
0.000001 
0.000001 
0.000001 
0.000001 
0.000001 
0.000001 
0.000001 
0.000001 
0.000001 
0.000001 
0.000001 
0.000002 
0.000002 
0.000002 
0.000002 
0.000002 
0.000002 
0.000003 
0.000003 
0.000003 
0.000003 
0.000004 
0.000004 
0.000004 
0.000005 
0.000005 
0.000006 
0.000006 
0.000007 
0.000007 
0.000008 
0.000009 
0.000009 
0.000010 
0.000011 
0.000012 
0.000013 
0.000014 
0.000015 
0.000016 
0.000018 
0.000019 
0.000021 
0.000023 
0.000024 
0.000026 
0.000028 
0.000031 
0.000033 
0.000036 
0.000038 
0.000041 
0.000045 
0.000048 
0.000052 
0.000056 
0.000060 
0.000064 
0.000069 
0.000074 
0.000080 
0.000086 
0.000092 
0.000098 
0.000106 
0.000113 
0.000121 
0.000130 
0.000139 
0.000149 
0.000159 
0.000170 
0.000182 
0.000194 
0.000207 
0.000221 
0.000236 
0.000252 
0.000268 
0.000286 
0.000304 
0.000324 
0.000345 
0.000367 
0.000390 
0.000415 
0.000441 
0.000468 
0.000497 
0.000528 
0.000560 
0.000594 
0.000629 
0.000667 
0.000706 
0.000748 
0.000791 
0.000837 
0.000885 
0.000935 
0.000988 
0.001044 
0.001102 
0.001162 
0.001226 
0.001293 
0.001362 
0.001435 
0.001511 
0.001590 
0.001673 
0.001759 
0.001849 
0.001943 
0.002041 
0.002142 
0.002248 
0.002358 
0.002472 
0.002591 
0.002715 
0.002843 
0.002975 
0.003113 
0.003256 
0.003403 
0.003556 
0.003714 
0.003878 
0.004047 
0.004222 
0.004402 
0.004588 
0.004780 
0.004978 
0.005182 
0.005392 
0.005608 
0.005831 
0.006059 
0.006294 
0.006536 
0.006783 
0.007038 
0.007298 
0.007566 
0.007840 
0.008120 
0.008407 
0.008701 
0.009001 
0.009307 
0.009621 
0.009940 
0.010267 
0.010599 
0.010939 
0.011284 
0.011636 
0.011994 
0.012358 
0.012728 
0.013104 
0.013487 
0.013874 
0.014268 
0.014667 
0.015071 
0.015481 
0.015896 
0.016316 
0.016741 
0.017170 
0.017604 
0.018042 
0.018485 
0.018931 
0.019381 
0.019835 
0.020292 
0.020753 
0.021216 
0.021682 
0.022151 
0.022622 
0.023096 
0.023571 
0.024048 
0.024526 
0.025006 
0.025486 
0.025967 
0.026449 
0.026931 
0.027413 
0.027895 
0.028377 
0.028857 
0.029337 
0.029815 
0.030292 
0.030768 
0.031241 
0.031713 
0.032182 
0.032648 
0.033111 
0.033571 
0.034028 
0.034482 
0.034931 
0.035377 
0.035818 
0.036255 
0.036687 
0.037114 
0.037537 
0.037953 
0.038365 
0.038770 
0.039170 
0.039564 
0.039951 
0.040332 
0.040706 
0.041074 
0.041434 
0.041787 
0.042133 
0.042472 
0.042803 
0.043126 
0.043441 
0.043748 
0.044047 
0.044337 
0.044619 
0.044892 
0.045157 
0.045413 
0.045660 
0.045898 
0.046126 
0.046346 
0.046556 
0.046756 
0.046948 
0.047129 
0.047301 
0.047463 
0.047615 
0.047758 
0.047890 
0.048013 
0.048125 
0.048228 
0.048320 
0.048402 
0.048474 
0.048536 
0.048587 
0.048629 
0.048659 
0.048680 
0.048690 
0.000000 
0.000000 
0.000000 
0.000000 
0.000000 
0.000000 
0.000000 
0.000000 
0.000000 
0.000000 
0.000000 
0.000000 
0.000000 
0.000000 
0.000000 
0.000000 
0.000000 
0.000000 
0.000000 
0.000000 
0.000000 
0.000000 
0.000000 
0.000000 
0.000000 
0.000000 
0.000000 
0.000000 
0.000000 
0.000000 
0.000000 
0.000000 
0.000000 
0.000001 
0.000001 
0.000001 
0.000001 
0.000001 
0.000001 
0.000001 
0.000001 
0.000001 
0.000001 
0.000001 
0.000001 
0.000002 
0.000002 
0.000002 
0.000002 
0.000002 
0.000002 
0.000003 
0.000003 
0.000003 
0.000003 
0.000004 
0.000004 
0.000004 
0.000005 
0.000005 
0.000006 
0.000006 
0.000007 
0.000007 
0.000008 
0.000009 
0.000009 
0.000010 
0.000011 
0.000012 
0.000013 
0.000014 
0.000015 
0.000017 
0.000018 
0.000020 
0.000021 
0.000023 
0.000025 
0.000027 
0.000029 
0.000031 
0.000034 
0.000037 
0.000039 
0.000043 
0.000046 
0.000049 
0.000053 
0.000057 
0.000062 
0.000066 
0.000071 
0.000077 
0.000082 
0.000088 
0.000095 
0.000102 
0.000109 
0.000117 
0.000126 
0.000135 
0.000144 
0.000155 
0.000165 
0.000177 
0.000189 
0.000202 
0.000216 
0.000231 
0.000247 
0.000263 
0.000281 
0.000300 
0.000319 
0.000340 
0.000362 
0.000386 
0.000411 
0.000437 
0.000465 
0.000494 
0.000525 
0.000557 
0.000592 
0.000628 
0.000666 
0.000706 
0.000749 
0.000793 
0.000840 
0.000889 
0.000941 
0.000995 
0.001052 
0.001112 
0.001175 
0.001241 
0.001310 
0.001382 
0.001457 
0.001536 
0.001619 
0.001705 
0.001795 
0.001889 
0.001987 
0.002090 
0.002196 
0.002308 
0.002423 
0.002544 
0.002669 
0.002799 
0.002935 
0.003076 
0.003222 
0.003373 
0.003530 
0.003693 
0.003862 
0.004037 
0.004218 
0.004405 
0.004598 
0.004798 
0.005005 
0.005218 
0.005438 
0.005664 
0.005898 
0.006139 
0.006387 
0.006642 
0.006905 
0.007174 
0.007452 
0.007736 
0.008028 
0.008328 
0.008636 
0.008951 
0.009273 
0.009604 
0.009942 
0.010287 
0.010641 
0.011002 
0.011370 
0.011746 
0.012130 
0.012521 
0.012920 
0.013326 
0.013739 
0.014160 
0.014587 
0.015022 
0.015464 
0.015912 
0.016367 
0.016829 
0.017297 
0.017771 
0.018251 
0.018737 
0.019229 
0.019726 
0.020229 
0.020737 
0.021250 
0.021768 
0.022290 
0.022817 
0.023347 
0.023882 
0.024420 
0.024961 
0.025506 
0.026053 
0.026603 
0.027156 
0.027710 
0.028267 
0.028825 
0.029384 
0.029944 
0.030505 
0.031066 
0.031628 
0.032190 
0.032751 
0.033311 
0.033871 
0.034429 
0.034986 
0.035540 
0.036093 
0.036644 
0.037192 
0.037737 
0.038279 
0.038817 
0.039352 
0.039882 
0.040409 
0.040930 
0.041448 
0.041960 
0.042466 
0.042968 
0.043463 
0.043953 
0.044436 
0.044913 
0.045383 
0.045846 
0.046302 
0.046751 
0.047192 
0.047626 
0.048051 
0.048468 
0.048877 
0.049278 
0.049669 
0.050052 
0.050426 
0.050790 
0.051145 
0.051491 
0.051827 
0.052153 
0.052469 
0.052775 
0.053071 
0.053356 
0.053631 
0.053895 
0.054149 
0.054391 
0.054623 
0.054844 
0.055054 
0.055252 
0.055440 
0.055615 
0.055780 
0.055933 
0.056075 
0.056204 
0.056323 
0.056429 
0.056524 
0.056607 
0.056678 
0.056738 
0.056785 
0.056821 
0.056845 
0.056857 
0.000000 
0.000000 
0.000000 
0.000000 
0.000000 
0.000000 
0.000000 
0.000000 
0.000000 
0.000000 
0.000000 
0.000000 
0.000000 
0.000000 
0.000000 
0.000000 
0.000000 
0.000000 
0.000000 
0.000000 
0.000000 
0.000000 
0.000000 
0.000000 
0.000000 
0.000000 
0.000000 
0.000000 
0.000000 
0.000000 
0.000000 
0.000000 
0.000001 
0.000001 
0.000001 
0.000001 
0.000001 
0.000001 
0.000001 
0.000001 
0.000001 
0.000001 
0.000001 
0.000002 
0.000002 
0.000002 
0.000002 
0.000002 
0.000002 
0.000003 
0.000003 
0.000003 
0.000003 
0.000004 
0.000004 
0.000004 
0.000005 
0.000005 
0.000006 
0.000006 
0.000007 
0.000007 
0.000008 
0.000009 
0.000009 
0.000010 
0.000011 
0.000012 
0.000013 
0.000014 
0.000015 
0.000017 
0.000018 
0.000020 
0.000021 
0.000023 
0.000025 
0.000027 
0.000029 
0.000031 
0.000034 
0.000037 
0.000040 
0.000043 
0.000046 
0.000050 
0.000054 
0.000058 
0.000062 
0.000067 
0.000072 
0.000078 
0.000083 
0.000090 
0.000096 
0.000104 
0.000111 
0.000119 
0.000128 
0.000137 
0.000147 
0.000158 
0.000169 
0.000181 
0.000194 
0.000207 
0.000221 
0.000237 
0.000253 
0.000270 
0.000289 
0.000308 
0.000328 
0.000350 
0.000373 
0.000398 
0.000424 
0.000451 
0.000480 
0.000511 
0.000543 
0.000577 
0.000613 
0.000652 
0.000692 
0.000734 
0.000779 
0.000826 
0.000875 
0.000927 
0.000982 
0.001039 
0.001099 
0.001163 
0.001229 
0.001299 
0.001372 
0.001449 
0.001529 
0.001613 
0.001701 
0.001793 
0.001889 
0.001990 
0.002095 
0.002204 
0.002318 
0.002438 
0.002562 
0.002691 
0.002826 
0.002966 
0.003112 
0.003263 
0.003421 
0.003584 
0.003754 
0.003930 
0.004113 
0.004302 
0.004498 
0.004701 
0.004911 
0.005128 
0.005353 
0.005585 
0.005824 
0.006072 
0.006327 
0.006590 
0.006860 
0.007140 
0.007427 
0.007722 
0.008026 
0.008339 
0.008659 
0.008989 
0.009327 
0.009674 
0.010029 
0.010393 
0.010766 
0.011148 
0.011538 
0.011937 
0.012345 
0.012762 
0.013187 
0.013621 
0.014064 
0.014515 
0.014974 
0.015442 
0.015919 
0.016403 
0.016895 
0.017396 
0.017904 
0.018420 
0.018943 
0.019474 
0.020012 
0.020557 
0.021108 
0.021667 
0.022232 
0.022803 
0.023380 
0.023963 
0.024551 
0.025145 
0.025743 
0.026347 
0.026955 
0.027567 
0.028183 
0.028803 
0.029426 
0.030053 
0.030682 
0.031314 
0.031948 
0.032583 
0.033221 
0.033860 
0.034500 
0.035140 
0.035781 
0.036422 
0.037062 
0.037702 
0.038341 
0.038979 
0.039615 
0.040250 
0.040882 
0.041512 
0.042138 
0.042762 
0.043382 
0.043999 
0.044611 
0.045219 
0.045823 
0.046421 
0.047014 
0.047602 
0.048183 
0.048759 
0.049328 
0.049891 
0.050447 
0.050995 
0.051536 
0.052070 
0.052595 
0.053112 
0.053621 
0.054121 
0.054613 
0.055095 
0.055568 
0.056031 
0.056484 
0.056928 
0.057361 
0.057785 
0.058197 
0.058599 
0.058990 
0.059370 
0.059739 
0.060097 
0.060443 
0.060778 
0.061100 
0.061411 
0.061710 
0.061997 
0.062271 
0.062533 
0.062783 
0.063020 
0.063244 
0.063456 
0.063655 
0.063840 
0.064013 
0.064173 
0.064320 
0.064454 
0.064574 
0.064681 
0.064775 
0.064855 
0.064923 
0.064976 
0.065017 
0.065043 
0.065057 
0.000000 
0.000000 
0.000000 
0.000000 
0.000000 
0.000000 
0.000000 
0.000000 
0.000000 
0.000000 
0.000000 
0.000000 
0.000000 
0.000000 
0.000000 
0.000000 
0.000000 
0.000000 
0.000000 
0.000000 
0.000000 
0.000000 
0.000000 
0.000000 
0.000000 
0.000000 