# vtk DataFile Version 3.0
results.vtk
ASCII
DATASET RECTILINEAR_GRID
DIMENSIONS 301 301 1
X_COORDINATES 301 double
0.000000 0.003333 0.006667 0.010000 0.013333 0.016667 0.020000 0.023333 0.026667 0.030000 0.033333 0.036667 0.040000 0.043333 0.046667 0.050000 0.053333 0.056667 0.060000 0.063333 0.066667 0.070000 0.073333 0.076667 0.080000 0.083333 0.086667 0.090000 0.093333 0.096667 0.100000 0.103333 0.106667 0.110000 0.113333 0.116667 0.120000 0.123333 0.126667 0.130000 0.133333 0.136667 0.140000 0.143333 0.146667 0.150000 0.153333 0.156667 0.160000 0.163333 0.166667 0.170000 0.173333 0.176667 0.180000 0.183333 0.186667 0.190000 0.193333 0.196667 0.200000 0.203333 0.206667 0.210000 0.213333 0.216667 0.220000 0.223333 0.226667 0.230000 0.233333 0.236667 0.240000 0.243333 0.246667 0.250000 0.253333 0.256667 0.260000 0.263333 0.266667 0.270000 0.273333 0.276667 0.280000 0.283333 0.286667 0.290000 0.293333 0.296667 0.300000 0.303333 0.306667 0.310000 0.313333 0.316667 0.320000 0.323333 0.326667 0.330000 0.333333 0.336667 0.340000 0.343333 0.346667 0.350000 0.353333 0.356667 0.360000 0.363333 0.366667 0.370000 0.373333 0.376667 0.380000 0.383333 0.386667 0.390000 0.393333 0.396667 0.400000 0.403333 0.406667 0.410000 0.413333 0.416667 0.420000 0.423333 0.426667 0.430000 0.433333 0.436667 0.440000 0.443333 0.446667 0.450000 0.453333 0.456667 0.460000 0.463333 0.466667 0.470000 0.473333 0.476667 0.480000 0.483333 0.486667 0.490000 0.493333 0.496667 0.500000 0.503333 0.506667 0.510000 0.513333 0.516667 0.520000 0.523333 0.526667 0.530000 0.533333 0.536667 0.540000 0.543333 0.546667 0.550000 0.553333 0.556667 0.560000 0.563333 0.566667 0.570000 0.573333 0.576667 0.580000 0.583333 0.586667 0.590000 0.593333 0.596667 0.600000 0.603333 0.606667 0.610000 0.613333 0.616667 0.620000 0.623333 0.626667 0.630000 0.633333 0.636667 0.640000 0.643333 0.646667 0.650000 0.653333 0.656667 0.660000 0.663333 0.666667 0.670000 0.673333 0.676667 0.680000 0.683333 0.686667 0.690000 0.693333 0.696667 0.700000 0.703333 0.706667 0.710000 0.713333 0.716667 0.720000 0.723333 0.726667 0.730000 0.733333 0.736667 0.740000 0.743333 0.746667 0.750000 0.753333 0.756667 0.760000 0.763333 0.766667 0.770000 0.773333 0.776667 0.780000 0.783333 0.786667 0.790000 0.793333 0.796667 0.800000 0.803333 0.806667 0.810000 0.813333 0.816667 0.820000 0.823333 0.826667 0.830000 0.833333 0.836667 0.840000 0.843333 0.846667 0.850000 0.853333 0.856667 0.860000 0.863333 0.866667 0.870000 0.873333 0.876667 0.880000 0.883333 0.886667 0.890000 0.893333 0.896667 0.900000 0.903333 0.906667 0.910000 0.913333 0.916667 0.920000 0.923333 0.926667 0.930000 0.933333 0.936667 0.940000 0.943333 0.946667 0.950000 0.953333 0.956667 0.960000 0.963333 0.966667 0.970000 0.973333 0.976667 0.980000 0.983333 0.986667 0.990000 0.993333 0.996667 1.000000 
Y_COORDINATES 301 double
0.000000 0.003333 0.006667 0.010000 0.013333 0.016667 0.020000 0.023333 0.026667 0.030000 0.033333 0.036667 0.040000 0.043333 0.046667 0.050000 0.053333 0.056667 0.060000 0.063333 0.066667 0.070000 0.073333 0.076667 0.080000 0.083333 0.086667 0.090000 0.093333 0.096667 0.100000 0.103333 0.106667 0.110000 0.113333 0.116667 0.120000 0.123333 0.126667 0.130000 0.133333 0.136667 0.140000 0.143333 0.146667 0.150000 0.153333 0.156667 0.160000 0.163333 0.166667 0.170000 0.173333 0.176667 0.180000 0.183333 0.186667 0.190000 0.193333 0.196667 0.200000 0.203333 0.206667 0.210000 0.213333 0.216667 0.220000 0.223333 0.226667 0.230000 0.233333 0.236667 0.240000 0.243333 0.246667 0.250000 0.253333 0.256667 0.260000 0.263333 0.266667 0.270000 0.273333 0.276667 0.280000 0.283333 0.286667 0.290000 0.293333 0.296667 0.300000 0.303333 0.306667 0.310000 0.313333 0.316667 0.320000 0.323333 0.326667 0.330000 0.333333 0.336667 0.340000 0.343333 0.346667 0.350000 0.353333 0.356667 0.360000 0.363333 0.366667 0.370000 0.373333 0.376667 0.380000 0.383333 0.386667 0.390000 0.393333 0.396667 0.400000 0.403333 0.406667 0.410000 0.413333 0.416667 0.420000 0.423333 0.426667 0.430000 0.433333 0.436667 0.440000 0.443333 0.446667 0.450000 0.453333 0.456667 0.460000 0.463333 0.466667 0.470000 0.473333 0.476667 0.480000 0.483333 0.486667 0.490000 0.493333 0.496667 0.500000 0.503333 0.506667 0.510000 0.513333 0.516667 0.520000 0.523333 0.526667 0.530000 0.533333 0.536667 0.540000 0.543333 0.546667 0.550000 0.553333 0.556667 0.560000 0.563333 0.566667 0.570000 0.573333 0.576667 0.580000 0.583333 0.586667 0.590000 0.593333 0.596667 0.600000 0.603333 0.606667 0.610000 0.613333 0.616667 0.620000 0.623333 0.626667 0.630000 0.633333 0.636667 0.640000 0.643333 0.646667 0.650000 0.653333 0.656667 0.660000 0.663333 0.666667 0.670000 0.673333 0.676667 0.680000 0.683333 0.686667 0.690000 0.693333 0.696667 0.700000 0.703333 0.706667 0.710000 0.713333 0.716667 0.720000 0.723333 0.726667 0.730000 0.733333 0.736667 0.740000 0.743333 0.746667 0.750000 0.753333 0.756667 0.760000 0.763333 0.766667 0.770000 0.773333 0.776667 0.780000 0.783333 0.786667 0.790000 0.793333 0.796667 0.800000 0.803333 0.806667 0.810000 0.813333 0.816667 0.820000 0.823333 0.826667 0.830000 0.833333 0.836667 0.840000 0.843333 0.846667 0.850000 0.853333 0.856667 0.860000 0.863333 0.866667 0.870000 0.873333 0.876667 0.880000 0.883333 0.886667 0.890000 0.893333 0.896667 0.900000 0.903333 0.906667 0.910000 0.913333 0.916667 0.920000 0.923333 0.926667 0.930000 0.933333 0.936667 0.940000 0.943333 0.946667 0.950000 0.953333 0.956667 0.960000 0.963333 0.966667 0.970000 0.973333 0.976667 0.980000 0.983333 0.986667 0.990000 0.993333 0.996667 1.000000 
Z_COORDINATES 1 double
0
POINT_DATA 90601 
FIELD FieldData 1 
Concentração 1 90601 double 
0.000000 
0.000000 
0.000000 
0.000000 
0.000000 
0.000000 
0.000000 
0.000000 
0.000000 
0.000000 
0.000000 
0.000000 
0.000000 
0.000000 
0.000000 
0.000000 
0.000000 
0.000000 
0.000000 
0.000000 
0.000000 
0.000000 
0.000000 
0.000000 
0.000000 
0.000000 
0.000000 
0.000000 
0.000000 
0.000000 
0.000000 
0.000000 
0.000000 
0.000000 
0.000000 
0.000000 
0.000000 
0.000000 
0.000000 
0.000000 
0.000000 
0.000000 
0.000000 
0.000000 
0.000000 
0.000000 
0.000000 
0.000000 
0.000000 
0.000000 
0.000000 
0.000000 
0.000000 
0.000000 
0.000000 
0.000000 
0.000000 
0.000000 
0.000000 
0.000000 
0.000000 
0.000000 
0.000000 
0.000000 
0.000000 
0.000000 
0.000000 
0.000000 
0.000000 
0.000000 
0.000000 
0.000000 
0.000000 
0.000000 
0.000000 
0.000000 
0.000000 
0.000000 
0.000000 
0.000000 
0.000000 
0.000000 
0.000000 
0.000000 
0.000000 
0.000000 
0.000000 
0.000000 
0.000000 
0.000000 
0.000000 
0.000000 
0.000000 
0.000000 
0.000000 
0.000000 
0.000000 
0.000000 
0.000000 
0.000000 
0.000000 
0.000000 
0.000000 
0.000000 
0.000000 
0.000000 
0.000000 
0.000001 
0.000001 
0.000001 
0.000001 
0.000001 
0.000001 
0.000001 
0.000001 
0.000001 
0.000001 
0.000001 
0.000001 
0.000001 
0.000001 
0.000001 
0.000002 
0.000002 
0.000002 
0.000002 
0.000002 
0.000002 
0.000002 
0.000003 
0.000003 
0.000003 
0.000003 
0.000003 
0.000003 
0.000004 
0.000004 
0.000004 
0.000004 
0.000005 
0.000005 
0.000005 
0.000006 
0.000006 
0.000006 
0.000007 
0.000007 
0.000008 
0.000008 
0.000009 
0.000009 
0.000010 
0.000010 
0.000011 
0.000011 
0.000012 
0.000013 
0.000013 
0.000014 
0.000015 
0.000016 
0.000017 
0.000018 
0.000019 
0.000019 
0.000021 
0.000022 
0.000023 
0.000024 
0.000025 
0.000026 
0.000028 
0.000029 
0.000030 
0.000032 
0.000034 
0.000035 
0.000037 
0.000039 
0.000040 
0.000042 
0.000044 
0.000046 
0.000048 
0.000050 
0.000053 
0.000055 
0.000057 
0.000060 
0.000062 
0.000065 
0.000068 
0.000070 
0.000073 
0.000076 
0.000079 
0.000082 
0.000086 
0.000089 
0.000092 
0.000096 
0.000100 
0.000103 
0.000107 
0.000111 
0.000115 
0.000119 
0.000123 
0.000127 
0.000132 
0.000136 
0.000141 
0.000145 
0.000150 
0.000155 
0.000160 
0.000165 
0.000170 
0.000175 
0.000181 
0.000186 
0.000192 
0.000197 
0.000203 
0.000209 
0.000214 
0.000220 
0.000226 
0.000232 
0.000238 
0.000245 
0.000251 
0.000257 
0.000263 
0.000270 
0.000276 
0.000283 
0.000289 
0.000296 
0.000303 
0.000309 
0.000316 
0.000323 
0.000330 
0.000336 
0.000343 
0.000350 
0.000357 
0.000363 
0.000370 
0.000377 
0.000384 
0.000390 
0.000397 
0.000404 
0.000410 
0.000417 
0.000424 
0.000430 
0.000436 
0.000443 
0.000449 
0.000455 
0.000461 
0.000467 
0.000473 
0.000479 
0.000485 
0.000491 
0.000496 
0.000502 
0.000507 
0.000512 
0.000517 
0.000522 
0.000527 
0.000532 
0.000536 
0.000540 
0.000544 
0.000548 
0.000552 
0.000556 
0.000560 
0.000563 
0.000566 
0.000569 
0.000572 
0.000574 
0.000577 
0.000579 
0.000581 
0.000583 
0.000584 
0.000586 
0.000587 
0.000588 
0.000589 
0.000590 
0.000590 
0.000590 
0.000000 
0.000000 
0.000000 
0.000000 
0.000000 
0.000000 
0.000000 
0.000000 
0.000000 
0.000000 
0.000000 
0.000000 
0.000000 
0.000000 
0.000000 
0.000000 
0.000000 
0.000000 
0.000000 
0.000000 
0.000000 
0.000000 
0.000000 
0.000000 
0.000000 
0.000000 
0.000000 
0.000000 
0.000000 
0.000000 
0.000000 
0.000000 
0.000000 
0.000000 
0.000000 
0.000000 
0.000000 
0.000000 
0.000000 
0.000000 
0.000000 
0.000000 
0.000000 
0.000000 
0.000000 
0.000000 
0.000000 
0.000000 
0.000000 
0.000000 
0.000000 
0.000000 
0.000000 
0.000000 
0.000000 
0.000000 
0.000000 
0.000000 
0.000000 
0.000000 
0.000000 
0.000000 
0.000000 
0.000000 
0.000000 
0.000000 
0.000000 
0.000000 
0.000000 
0.000000 
0.000000 
0.000000 
0.000000 
0.000000 
0.000000 
0.000000 
0.000000 
0.000000 
0.000000 
0.000000 
0.000000 
0.000000 
0.000000 
0.000000 
0.000000 
0.000000 
0.000000 
0.000000 
0.000000 
0.000000 
0.000000 
0.000000 
0.000000 
0.000000 
0.000000 
0.000000 
0.000000 
0.000001 
0.000001 
0.000001 
0.000001 
0.000001 
0.000001 
0.000001 
0.000001 
0.000001 
0.000001 
0.000001 
0.000001 
0.000001 
0.000001 
0.000001 
0.000002 
0.000002 
0.000002 
0.000002 
0.000002 
0.000002 
0.000002 
0.000003 
0.000003 
0.000003 
0.000003 
0.000003 
0.000004 
0.000004 
0.000004 
0.000004 
0.000005 
0.000005 
0.000005 
0.000006 
0.000006 
0.000007 
0.000007 
0.000007 
0.000008 
0.000008 
0.000009 
0.000010 
0.000010 
0.000011 
0.000011 
0.000012 
0.000013 
0.000014 
0.000015 
0.000015 
0.000016 
0.000017 
0.000018 
0.000019 
0.000021 
0.000022 
0.000023 
0.000024 
0.000026 
0.000027 
0.000029 
0.000030 
0.000032 
0.000034 
0.000035 
0.000037 
0.000039 
0.000041 
0.000043 
0.000046 
0.000048 
0.000050 
0.000053 
0.000056 
0.000058 
0.000061 
0.000064 
0.000067 
0.000071 
0.000074 
0.000078 
0.000081 
0.000085 
0.000089 
0.000093 
0.000097 
0.000101 
0.000106 
0.000110 
0.000115 
0.000120 
0.000125 
0.000131 
0.000136 
0.000142 
0.000147 
0.000153 
0.000159 
0.000166 
0.000172 
0.000179 
0.000186 
0.000193 
0.000200 
0.000208 
0.000215 
0.000223 
0.000231 
0.000239 
0.000248 
0.000256 
0.000265 
0.000274 
0.000283 
0.000293 
0.000302 
0.000312 
0.000322 
0.000332 
0.000342 
0.000353 
0.000363 
0.000374 
0.000385 
0.000396 
0.000408 
0.000419 
0.000431 
0.000443 
0.000455 
0.000467 
0.000479 
0.000492 
0.000504 
0.000517 
0.000530 
0.000543 
0.000556 
0.000569 
0.000582 
0.000595 
0.000609 
0.000622 
0.000636 
0.000649 
0.000663 
0.000676 
0.000690 
0.000703 
0.000717 
0.000731 
0.000744 
0.000758 
0.000771 
0.000785 
0.000798 
0.000812 
0.000825 
0.000838 
0.000851 
0.000864 
0.000877 
0.000890 
0.000903 
0.000915 
0.000928 
0.000940 
0.000952 
0.000963 
0.000975 
0.000986 
0.000998 
0.001008 
0.001019 
0.001029 
0.001040 
0.001049 
0.001059 
0.001068 
0.001077 
0.001086 
0.001094 
0.001102 
0.001110 
0.001118 
0.001125 
0.001131 
0.001138 
0.001143 
0.001149 
0.001154 
0.001159 
0.001164 
0.001168 
0.001171 
0.001175 
0.001177 
0.001180 
0.001182 
0.001184 
0.001185 
0.001186 
0.001186 
0.000000 
0.000000 
0.000000 
0.000000 
0.000000 
0.000000 
0.000000 
0.000000 
0.000000 
0.000000 
0.000000 
0.000000 
0.000000 
0.000000 
0.000000 
0.000000 
0.000000 
0.000000 
0.000000 
0.000000 
0.000000 
0.000000 
0.000000 
0.000000 
0.000000 
0.000000 
0.000000 
0.000000 
0.000000 
0.000000 
0.000000 
0.000000 
0.000000 
0.000000 
0.000000 
0.000000 
0.000000 
0.000000 
0.000000 
0.000000 
0.000000 
0.000000 
0.000000 
0.000000 
0.000000 
0.000000 
0.000000 
0.000000 
0.000000 
0.000000 
0.000000 
0.000000 
0.000000 
0.000000 
0.000000 
0.000000 
0.000000 
0.000000 
0.000000 
0.000000 
0.000000 
0.000000 
0.000000 
0.000000 
0.000000 
0.000000 
0.000000 
0.000000 
0.000000 
0.000000 
0.000000 
0.000000 
0.000000 
0.000000 
0.000000 
0.000000 
0.000000 
0.000000 
0.000000 
0.000000 
0.000000 
0.000000 
0.000000 
0.000000 
0.000000 
0.000000 
0.000000 
0.000000 
0.000000 
0.000000 
0.000000 
0.000000 
0.000001 
0.000001 
0.000001 
0.000001 
0.000001 
0.000001 
0.000001 
0.000001 
0.000001 
0.000001 
0.000001 
0.000001 
0.000001 
0.000001 
0.000002 
0.000002 
0.000002 
0.000002 
0.000002 
0.000002 
0.000002 
0.000003 
0.000003 
0.000003 
0.000003 
0.000003 
0.000004 
0.000004 
0.000004 
0.000004 
0.000005 
0.000005 
0.000005 
0.000006 
0.000006 
0.000007 
0.000007 
0.000008 
0.000008 
0.000009 
0.000009 
0.000010 
0.000011 
0.000011 
0.000012 
0.000013 
0.000014 
0.000014 
0.000015 
0.000016 
0.000017 
0.000018 
0.000020 
0.000021 
0.000022 
0.000023 
0.000025 
0.000026 
0.000028 
0.000029 
0.000031 
0.000033 
0.000035 
0.000037 
0.000039 
0.000041 
0.000043 
0.000046 
0.000048 
0.000051 
0.000054 
0.000056 
0.000059 
0.000063 
0.000066 
0.000069 
0.000073 
0.000076 
0.000080 
0.000084 
0.000089 
0.000093 
0.000097 
0.000102 
0.000107 
0.000112 
0.000117 
0.000123 
0.000129 
0.000134 
0.000141 
0.000147 
0.000153 
0.000160 
0.000167 
0.000175 
0.000182 
0.000190 
0.000198 
0.000206 
0.000214 
0.000223 
0.000232 
0.000242 
0.000251 
0.000261 
0.000271 
0.000281 
0.000292 
0.000303 
0.000314 
0.000326 
0.000338 
0.000350 
0.000362 
0.000375 
0.000388 
0.000401 
0.000415 
0.000429 
0.000443 
0.000457 
0.000472 
0.000487 
0.000502 
0.000518 
0.000534 
0.000550 
0.000567 
0.000583 
0.000600 
0.000617 
0.000635 
0.000652 
0.000670 
0.000689 
0.000707 
0.000725 
0.000744 
0.000763 
0.000782 
0.000802 
0.000821 
0.000841 
0.000861 
0.000881 
0.000901 
0.000921 
0.000941 
0.000962 
0.000982 
0.001003 
0.001023 
0.001044 
0.001064 
0.001085 
0.001106 
0.001126 
0.001147 
0.001167 
0.001188 
0.001208 
0.001228 
0.001248 
0.001268 
0.001288 
0.001308 
0.001327 
0.001347 
0.001366 
0.001385 
0.001403 
0.001421 
0.001440 
0.001457 
0.001475 
0.001492 
0.001509 
0.001525 
0.001541 
0.001557 
0.001572 
0.001587 
0.001602 
0.001616 
0.001629 
0.001642 
0.001655 
0.001667 
0.001679 
0.001690 
0.001701 
0.001711 
0.001720 
0.001729 
0.001738 
0.001746 
0.001753 
0.001760 
0.001766 
0.001771 
0.001776 
0.001781 
0.001784 
0.001787 
0.001790 
0.001792 
0.001793 
0.001794 
0.000000 
0.000000 
0.000000 
0.000000 
0.000000 
0.000000 
0.000000 
0.000000 
0.000000 
0.000000 
0.000000 
0.000000 
0.000000 
0.000000 
0.000000 
0.000000 
0.000000 
0.000000 
0.000000 
0.000000 
0.000000 
0.000000 
0.000000 
0.000000 
0.000000 
0.000000 
0.000000 
0.000000 
0.000000 
0.000000 
0.000000 
0.000000 
0.000000 
0.000000 
0.000000 
0.000000 
0.000000 
0.000000 
0.000000 
0.000000 
0.000000 
0.000000 
0.000000 
0.000000 
0.000000 
0.000000 
0.000000 
0.000000 
0.000000 
0.000000 
0.000000 
0.000000 
0.000000 
0.000000 
0.000000 
0.000000 
0.000000 
0.000000 
0.000000 
0.000000 
0.000000 
0.000000 
0.000000 
0.000000 
0.000000 
0.000000 
0.000000 
0.000000 
0.000000 
0.000000 
0.000000 
0.000000 
0.000000 
0.000000 
0.000000 
0.000000 
0.000000 
0.000000 
0.000000 
0.000000 
0.000000 
0.000000 
0.000000 
0.000000 
0.000000 
0.000000 
0.000000 
0.000000 
0.000001 
0.000001 
0.000001 
0.000001 
0.000001 
0.000001 
0.000001 
0.000001 
0.000001 
0.000001 
0.000001 
0.000001 
0.000001 
0.000001 
0.000002 
0.000002 
0.000002 
0.000002 
0.000002 
0.000002 
0.000002 
0.000003 
0.000003 
0.000003 
0.000003 
0.000003 
0.000004 
0.000004 
0.000004 
0.000005 
0.000005 
0.000005 
0.000006 
0.000006 
0.000006 
0.000007 
0.000007 
0.000008 
0.000008 
0.000009 
0.000010 
0.000010 
0.000011 
0.000012 
0.000013 
0.000013 
0.000014 
0.000015 
0.000016 
0.000017 
0.000018 
0.000020 
0.000021 
0.000022 
0.000023 
0.000025 
0.000026 
0.000028 
0.000030 
0.000032 
0.000033 
0.000035 
0.000038 
0.000040 
0.000042 
0.000044 
0.000047 
0.000050 
0.000053 
0.000055 
0.000059 
0.000062 
0.000065 
0.000069 
0.000072 
0.000076 
0.000080 
0.000085 
0.000089 
0.000094 
0.000098 
0.000103 
0.000109 
0.000114 
0.000120 
0.000126 
0.000132 
0.000138 
0.000145 
0.000152 
0.000159 
0.000166 
0.000174 
0.000182 
0.000190 
0.000199 
0.000207 
0.000217 
0.000226 
0.000236 
0.000246 
0.000256 
0.000267 
0.000278 
0.000290 
0.000302 
0.000314 
0.000326 
0.000339 
0.000353 
0.000366 
0.000380 
0.000395 
0.000410 
0.000425 
0.000440 
0.000456 
0.000473 
0.000489 
0.000507 
0.000524 
0.000542 
0.000560 
0.000579 
0.000598 
0.000618 
0.000638 
0.000658 
0.000679 
0.000700 
0.000721 
0.000743 
0.000765 
0.000788 
0.000810 
0.000834 
0.000857 
0.000881 
0.000905 
0.000930 
0.000954 
0.000979 
0.001005 
0.001030 
0.001056 
0.001082 
0.001109 
0.001135 
0.001162 
0.001189 
0.001216 
0.001243 
0.001270 
0.001298 
0.001325 
0.001353 
0.001381 
0.001409 
0.001436 
0.001464 
0.001492 
0.001520 
0.001547 
0.001575 
0.001602 
0.001630 
0.001657 
0.001684 
0.001711 
0.001738 
0.001764 
0.001791 
0.001817 
0.001842 
0.001868 
0.001893 
0.001918 
0.001942 
0.001966 
0.001989 
0.002012 
0.002035 
0.002057 
0.002079 
0.002100 
0.002121 
0.002141 
0.002160 
0.002179 
0.002197 
0.002215 
0.002232 
0.002249 
0.002264 
0.002279 
0.002294 
0.002307 
0.002320 
0.002332 
0.002343 
0.002354 
0.002364 
0.002373 
0.002381 
0.002389 
0.002395 
0.002401 
0.002406 
0.002410 
0.002414 
0.002416 
0.002418 
0.002419 
0.000000 
0.000000 
0.000000 
0.000000 
0.000000 
0.000000 
0.000000 
0.000000 
0.000000 
0.000000 
0.000000 
0.000000 
0.000000 
0.000000 
0.000000 
0.000000 
0.000000 
0.000000 
0.000000 
0.000000 
0.000000 
0.000000 
0.000000 
0.000000 
0.000000 
0.000000 
0.000000 
0.000000 
0.000000 
0.000000 
0.000000 
0.000000 
0.000000 
0.000000 
0.000000 
0.000000 
0.000000 
0.000000 
0.000000 
0.000000 
0.000000 
0.000000 
0.000000 
0.000000 
0.000000 
0.000000 
0.000000 
0.000000 
0.000000 
0.000000 
0.000000 
0.000000 
0.000000 
0.000000 
0.000000 
0.000000 
0.000000 
0.000000 
0.000000 
0.000000 
0.000000 
0.000000 
0.000000 
0.000000 
0.000000 
0.000000 
0.000000 
0.000000 
0.000000 
0.000000 
0.000000 
0.000000 
0.000000 
0.000000 
0.000000 
0.000000 
0.000000 
0.000000 
0.000000 
0.000000 
0.000000 
0.000000 
0.000000 
0.000000 
0.000000 
0.000000 
0.000001 
0.000001 
0.000001 
0.000001 
0.000001 
0.000001 
0.000001 
0.000001 
0.000001 
0.000001 
0.000001 
0.000001 
0.000001 
0.000002 
0.000002 
0.000002 
0.000002 
0.000002 
0.000002 
0.000002 
0.000003 
0.000003 
0.000003 
0.000003 
0.000004 
0.000004 
0.000004 
0.000004 
0.000005 
0.000005 
0.000005 
0.000006 
0.000006 
0.000007 
0.000007 
0.000008 
0.000008 
0.000009 
0.000009 
0.000010 
0.000011 
0.000012 
0.000012 
0.000013 
0.000014 
0.000015 
0.000016 
0.000017 
0.000018 
0.000019 
0.000021 
0.000022 
0.000023 
0.000025 
0.000026 
0.000028 
0.000030 
0.000032 
0.000034 
0.000036 
0.000038 
0.000040 
0.000043 
0.000045 
0.000048 
0.000051 
0.000054 
0.000057 
0.000060 
0.000063 
0.000067 
0.000071 
0.000074 
0.000079 
0.000083 
0.000087 
0.000092 
0.000097 
0.000102 
0.000108 
0.000113 
0.000119 
0.000125 
0.000131 
0.000138 
0.000145 
0.000152 
0.000160 
0.000168 
0.000176 
0.000184 
0.000193 
0.000202 
0.000211 
0.000221 
0.000231 
0.000242 
0.000253 
0.000264 
0.000275 
0.000287 
0.000300 
0.000313 
0.000326 
0.000340 
0.000354 
0.000369 
0.000384 
0.000399 
0.000415 
0.000431 
0.000448 
0.000466 
0.000483 
0.000502 
0.000521 
0.000540 
0.000560 
0.000580 
0.000601 
0.000622 
0.000644 
0.000666 
0.000689 
0.000712 
0.000736 
0.000760 
0.000785 
0.000810 
0.000836 
0.000862 
0.000889 
0.000916 
0.000944 
0.000972 
0.001001 
0.001030 
0.001059 
0.001089 
0.001119 
0.001150 
0.001181 
0.001212 
0.001244 
0.001276 
0.001309 
0.001341 
0.001374 
0.001408 
0.001441 
0.001475 
0.001509 
0.001544 
0.001578 
0.001613 
0.001648 
0.001683 
0.001718 
0.001753 
0.001788 
0.001823 
0.001858 
0.001894 
0.001929 
0.001964 
0.001999 
0.002034 
0.002068 
0.002103 
0.002137 
0.002171 
0.002205 
0.002239 
0.002272 
0.002305 
0.002338 
0.002370 
0.002402 
0.002433 
0.002464 
0.002494 
0.002524 
0.002553 
0.002582 
0.002610 
0.002637 
0.002664 
0.002690 
0.002715 
0.002740 
0.002764 
0.002787 
0.002810 
0.002831 
0.002852 
0.002872 
0.002891 
0.002909 
0.002926 
0.002942 
0.002958 
0.002972 
0.002985 
0.002998 
0.003009 
0.003020 
0.003029 
0.003038 
0.003045 
0.003051 
0.003057 
0.003061 
0.003064 
0.003066 
0.003067 
0.000000 
0.000000 
0.000000 
0.000000 
0.000000 
0.000000 
0.000000 
0.000000 
0.000000 
0.000000 
0.000000 
0.000000 
0.000000 
0.000000 
0.000000 
0.000000 
0.000000 
0.000000 
0.000000 
0.000000 
0.000000 
0.000000 
0.000000 
0.000000 
0.000000 
0.000000 
0.000000 
0.000000 
0.000000 
0.000000 
0.000000 
0.000000 
0.000000 
0.000000 
0.000000 
0.000000 
0.000000 
0.000000 
0.000000 
0.000000 
0.000000 
0.000000 
0.000000 
0.000000 
0.000000 
0.000000 
0.000000 
0.000000 
0.000000 
0.000000 
0.000000 
0.000000 
0.000000 
0.000000 
0.000000 
0.000000 
0.000000 
0.000000 
0.000000 
0.000000 
0.000000 
0.000000 
0.000000 
0.000000 
0.000000 
0.000000 
0.000000 
0.000000 
0.000000 
0.000000 
0.000000 
0.000000 
0.000000 
0.000000 
0.000000 
0.000000 
0.000000 
0.000000 
0.000000 
0.000000 
0.000000 
0.000000 
0.000000 
0.000001 
0.000001 
0.000001 
0.000001 
0.000001 
0.000001 
0.000001 
0.000001 
0.000001 
0.000001 
0.000001 
0.000001 
0.000001 
0.000001 
0.000002 
0.000002 
0.000002 
0.000002 
0.000002 
0.000002 
0.000003 
0.000003 
0.000003 
0.000003 
0.000003 
0.000004 
0.000004 
0.000004 
0.000005 
0.000005 
0.000005 
0.000006 
0.000006 
0.000007 
0.000007 
0.000008 
0.000008 
0.000009 
0.000009 
0.000010 
0.000011 
0.000012 
0.000012 
0.000013 
0.000014 
0.000015 
0.000016 
0.000017 
0.000018 
0.000020 
0.000021 
0.000022 
0.000024 
0.000025 
0.000027 
0.000029 
0.000031 
0.000032 
0.000034 
0.000037 
0.000039 
0.000041 
0.000044 
0.000046 
0.000049 
0.000052 
0.000055 
0.000059 
0.000062 
0.000066 
0.000069 
0.000073 
0.000078 
0.000082 
0.000087 
0.000091 
0.000096 
0.000102 
0.000107 
0.000113 
0.000119 
0.000125 
0.000132 
0.000139 
0.000146 
0.000153 
0.000161 
0.000169 
0.000178 
0.000187 
0.000196 
0.000205 
0.000215 
0.000226 
0.000236 
0.000247 
0.000259 
0.000271 
0.000283 
0.000296 
0.000309 
0.000323 
0.000338 
0.000352 
0.000367 
0.000383 
0.000400 
0.000416 
0.000434 
0.000451 
0.000470 
0.000489 
0.000508 
0.000528 
0.000549 
0.000570 
0.000592 
0.000615 
0.000638 
0.000661 
0.000685 
0.000710 
0.000736 
0.000762 
0.000788 
0.000816 
0.000843 
0.000872 
0.000901 
0.000931 
0.000961 
0.000992 
0.001023 
0.001055 
0.001088 
0.001121 
0.001155 
0.001189 
0.001224 
0.001260 
0.001296 
0.001332 
0.001369 
0.001407 
0.001445 
0.001483 
0.001522 
0.001561 
0.001601 
0.001641 
0.001681 
0.001722 
0.001763 
0.001804 
0.001846 
0.001888 
0.001930 
0.001972 
0.002015 
0.002057 
0.002100 
0.002143 
0.002186 
0.002229 
0.002272 
0.002315 
0.002358 
0.002401 
0.002443 
0.002486 
0.002528 
0.002570 
0.002612 
0.002654 
0.002695 
0.002736 
0.002776 
0.002817 
0.002856 
0.002895 
0.002934 
0.002972 
0.003010 
0.003047 
0.003083 
0.003119 
0.003154 
0.003188 
0.003221 
0.003254 
0.003286 
0.003317 
0.003347 
0.003376 
0.003404 
0.003432 
0.003458 
0.003483 
0.003507 
0.003530 
0.003552 
0.003573 
0.003593 
0.003612 
0.003629 
0.003646 
0.003661 
0.003675 
0.003688 
0.003699 
0.003709 
0.003718 
0.003726 
0.003732 
0.003737 
0.003741 
0.003744 
0.003745 
0.000000 
0.000000 
0.000000 
0.000000 
0.000000 
0.000000 
0.000000 
0.000000 
0.000000 
0.000000 
0.000000 
0.000000 
0.000000 
0.000000 
0.000000 
0.000000 
0.000000 
0.000000 
0.000000 
0.000000 
0.000000 
0.000000 
0.000000 
0.000000 
0.000000 
0.000000 
0.000000 
0.000000 
0.000000 
0.000000 
0.000000 
0.000000 
0.000000 
0.000000 
0.000000 
0.000000 
0.000000 
0.000000 
0.000000 
0.000000 
0.000000 
0.000000 
0.000000 
0.000000 
0.000000 
0.000000 
0.000000 
0.000000 
0.000000 
0.000000 
0.000000 
0.000000 
0.000000 
0.000000 
0.000000 
0.000000 
0.000000 
0.000000 
0.000000 
0.000000 
0.000000 
0.000000 
0.000000 
0.000000 
0.000000 
0.000000 
0.000000 
0.000000 
0.000000 
0.000000 
0.000000 
0.000000 
0.000000 
0.000000 
0.000000 
0.000000 
0.000000 
0.000000 
0.000000 
0.000000 
0.000000 
0.000001 
0.000001 
0.000001 
0.000001 
0.000001 
0.000001 
0.000001 
0.000001 
0.000001 
0.000001 
0.000001 
0.000001 
0.000001 
0.000002 
0.000002 
0.000002 
0.000002 
0.000002 
0.000002 
0.000002 
0.000003 
0.000003 
0.000003 
0.000003 
0.000004 
0.000004 
0.000004 
0.000004 
0.000005 
0.000005 
0.000006 
0.000006 
0.000006 
0.000007 
0.000007 
0.000008 
0.000009 
0.000009 
0.000010 
0.000011 
0.000011 
0.000012 
0.000013 
0.000014 
0.000015 
0.000016 
0.000017 
0.000018 
0.000019 
0.000021 
0.000022 
0.000024 
0.000025 
0.000027 
0.000028 
0.000030 
0.000032 
0.000034 
0.000037 
0.000039 
0.000041 
0.000044 
0.000047 
0.000049 
0.000052 
0.000056 
0.000059 
0.000063 
0.000066 
0.000070 
0.000074 
0.000079 
0.000083 
0.000088 
0.000093 
0.000098 
0.000104 
0.000109 
0.000115 
0.000122 
0.000128 
0.000135 
0.000142 
0.000150 
0.000158 
0.000166 
0.000175 
0.000184 
0.000193 
0.000203 
0.000213 
0.000223 
0.000234 
0.000246 
0.000257 
0.000270 
0.000283 
0.000296 
0.000310 
0.000324 
0.000339 
0.000354 
0.000370 
0.000386 
0.000404 
0.000421 
0.000439 
0.000458 
0.000478 
0.000498 
0.000518 
0.000540 
0.000562 
0.000584 
0.000607 
0.000631 
0.000656 
0.000681 
0.000708 
0.000734 
0.000762 
0.000790 
0.000819 
0.000848 
0.000879 
0.000910 
0.000942 
0.000974 
0.001007 
0.001041 
0.001076 
0.001111 
0.001148 
0.001184 
0.001222 
0.001260 
0.001299 
0.001339 
0.001379 
0.001420 
0.001461 
0.001504 
0.001547 
0.001590 
0.001634 
0.001679 
0.001724 
0.001770 
0.001816 
0.001863 
0.001910 
0.001957 
0.002006 
0.002054 
0.002103 
0.002152 
0.002202 
0.002252 
0.002302 
0.002352 
0.002403 
0.002453 
0.002504 
0.002555 
0.002606 
0.002657 
0.002709 
0.002760 
0.002811 
0.002862 
0.002912 
0.002963 
0.003013 
0.003063 
0.003113 
0.003163 
0.003212 
0.003260 
0.003308 
0.003356 
0.003403 
0.003450 
0.003496 
0.003541 
0.003586 
0.003630 
0.003673 
0.003715 
0.003757 
0.003798 
0.003837 
0.003876 
0.003914 
0.003951 
0.003986 
0.004021 
0.004054 
0.004087 
0.004118 
0.004148 
0.004177 
0.004204 
0.004230 
0.004255 
0.004279 
0.004301 
0.004322 
0.004341 
0.004359 
0.004376 
0.004391 
0.004404 
0.004416 
0.004427 
0.004436 
0.004444 
0.004450 
0.004455 
0.004458 
0.004459 
0.000000 
0.000000 
0.000000 
0.000000 
0.000000 
0.000000 
0.000000 
0.000000 
0.000000 
0.000000 
0.000000 
0.000000 
0.000000 
0.000000 
0.000000 
0.000000 
0.000000 
0.000000 
0.000000 
0.000000 
0.000000 
0.000000 
0.000000 
0.000000 
0.000000 
0.000000 
0.000000 
0.000000 
0.000000 
0.000000 
0.000000 
0.000000 
0.000000 
0.000000 
0.000000 
0.000000 
0.000000 
0.000000 
0.000000 
0.000000 
0.000000 
0.000000 
0.000000 
0.000000 
0.000000 
0.000000 
0.000000 
0.000000 
0.000000 
0.000000 
0.000000 
0.000000 
0.000000 
0.000000 
0.000000 
0.000000 
0.000000 
0.000000 
0.000000 
0.000000 
0.000000 
0.000000 
0.000000 
0.000000 
0.000000 
0.000000 
0.000000 
0.000000 
0.000000 
0.000000 
0.000000 
0.000000 
0.000000 
0.000000 
0.000000 
0.000000 
0.000000 
0.000000 
0.000000 
0.000001 
0.000001 
0.000001 
0.000001 
0.000001 
0.000001 
0.000001 
0.000001 
0.000001 
0.000001 
0.000001 
0.000001 
0.000001 
0.000002 
0.000002 
0.000002 
0.000002 
0.000002 
0.000002 
0.000002 
0.000003 
0.000003 
0.000003 
0.000003 
0.000004 
0.000004 
0.000004 
0.000005 
0.000005 
0.000005 
0.000006 
0.000006 
0.000007 
0.000007 
0.000008 
0.000008 
0.000009 
0.000009 
0.000010 
0.000011 
0.000012 
0.000012 
0.000013 
0.000014 
0.000015 
0.000016 
0.000017 
0.000019 
0.000020 
0.000021 
0.000023 
0.000024 
0.000026 
0.000028 
0.000029 
0.000031 
0.000033 
0.000036 
0.000038 
0.000040 
0.000043 
0.000046 
0.000049 
0.000052 
0.000055 
0.000058 
0.000062 
0.000065 
0.000069 
0.000074 
0.000078 
0.000083 
0.000087 
0.000092 
0.000098 
0.000103 
0.000109 
0.000115 
0.000122 
0.000129 
0.000136 
0.000143 
0.000151 
0.000159 
0.000167 
0.000176 
0.000186 
0.000195 
0.000205 
0.000216 
0.000227 
0.000238 
0.000250 
0.000262 
0.000275 
0.000289 
0.000303 
0.000317 
0.000332 
0.000348 
0.000364 
0.000381 
0.000398 
0.000416 
0.000435 
0.000454 
0.000474 
0.000495 
0.000516 
0.000538 
0.000561 
0.000585 
0.000609 
0.000634 
0.000660 
0.000686 
0.000714 
0.000742 
0.000771 
0.000800 
0.000831 
0.000862 
0.000894 
0.000927 
0.000961 
0.000996 
0.001032 
0.001068 
0.001105 
0.001143 
0.001182 
0.001222 
0.001263 
0.001304 
0.001347 
0.001390 
0.001434 
0.001479 
0.001524 
0.001571 
0.001618 
0.001666 
0.001714 
0.001764 
0.001814 
0.001865 
0.001916 
0.001969 
0.002021 
0.002075 
0.002129 
0.002184 
0.002239 
0.002295 
0.002351 
0.002408 
0.002465 
0.002522 
0.002580 
0.002639 
0.002697 
0.002756 
0.002815 
0.002875 
0.002934 
0.002994 
0.003053 
0.003113 
0.003173 
0.003232 
0.003292 
0.003351 
0.003411 
0.003470 
0.003528 
0.003587 
0.003645 
0.003703 
0.003760 
0.003817 
0.003873 
0.003929 
0.003984 
0.004038 
0.004092 
0.004145 
0.004197 
0.004248 
0.004299 
0.004348 
0.004396 
0.004444 
0.004490 
0.004535 
0.004579 
0.004622 
0.004664 
0.004704 
0.004743 
0.004781 
0.004818 
0.004853 
0.004886 
0.004918 
0.004949 
0.004978 
0.005005 
0.005031 
0.005055 
0.005078 
0.005099 
0.005118 
0.005136 
0.005151 
0.005166 
0.005178 
0.005189 
0.005198 
0.005205 
0.005210 
0.005214 
0.005215 
0.000000 
0.000000 
0.000000 
0.000000 
0.000000 
0.000000 
0.000000 
0.000000 
0.000000 
0.000000 
0.000000 
0.000000 
0.000000 
0.000000 
0.000000 
0.000000 
0.000000 
0.000000 
0.000000 
0.000000 
0.000000 
0.000000 
0.000000 
0.000000 
0.000000 
0.000000 