# vtk DataFile Version 3.0
results.vtk
ASCII
DATASET RECTILINEAR_GRID
DIMENSIONS 301 301 1
X_COORDINATES 301 double
0.000000 0.003333 0.006667 0.010000 0.013333 0.016667 0.020000 0.023333 0.026667 0.030000 0.033333 0.036667 0.040000 0.043333 0.046667 0.050000 0.053333 0.056667 0.060000 0.063333 0.066667 0.070000 0.073333 0.076667 0.080000 0.083333 0.086667 0.090000 0.093333 0.096667 0.100000 0.103333 0.106667 0.110000 0.113333 0.116667 0.120000 0.123333 0.126667 0.130000 0.133333 0.136667 0.140000 0.143333 0.146667 0.150000 0.153333 0.156667 0.160000 0.163333 0.166667 0.170000 0.173333 0.176667 0.180000 0.183333 0.186667 0.190000 0.193333 0.196667 0.200000 0.203333 0.206667 0.210000 0.213333 0.216667 0.220000 0.223333 0.226667 0.230000 0.233333 0.236667 0.240000 0.243333 0.246667 0.250000 0.253333 0.256667 0.260000 0.263333 0.266667 0.270000 0.273333 0.276667 0.280000 0.283333 0.286667 0.290000 0.293333 0.296667 0.300000 0.303333 0.306667 0.310000 0.313333 0.316667 0.320000 0.323333 0.326667 0.330000 0.333333 0.336667 0.340000 0.343333 0.346667 0.350000 0.353333 0.356667 0.360000 0.363333 0.366667 0.370000 0.373333 0.376667 0.380000 0.383333 0.386667 0.390000 0.393333 0.396667 0.400000 0.403333 0.406667 0.410000 0.413333 0.416667 0.420000 0.423333 0.426667 0.430000 0.433333 0.436667 0.440000 0.443333 0.446667 0.450000 0.453333 0.456667 0.460000 0.463333 0.466667 0.470000 0.473333 0.476667 0.480000 0.483333 0.486667 0.490000 0.493333 0.496667 0.500000 0.503333 0.506667 0.510000 0.513333 0.516667 0.520000 0.523333 0.526667 0.530000 0.533333 0.536667 0.540000 0.543333 0.546667 0.550000 0.553333 0.556667 0.560000 0.563333 0.566667 0.570000 0.573333 0.576667 0.580000 0.583333 0.586667 0.590000 0.593333 0.596667 0.600000 0.603333 0.606667 0.610000 0.613333 0.616667 0.620000 0.623333 0.626667 0.630000 0.633333 0.636667 0.640000 0.643333 0.646667 0.650000 0.653333 0.656667 0.660000 0.663333 0.666667 0.670000 0.673333 0.676667 0.680000 0.683333 0.686667 0.690000 0.693333 0.696667 0.700000 0.703333 0.706667 0.710000 0.713333 0.716667 0.720000 0.723333 0.726667 0.730000 0.733333 0.736667 0.740000 0.743333 0.746667 0.750000 0.753333 0.756667 0.760000 0.763333 0.766667 0.770000 0.773333 0.776667 0.780000 0.783333 0.786667 0.790000 0.793333 0.796667 0.800000 0.803333 0.806667 0.810000 0.813333 0.816667 0.820000 0.823333 0.826667 0.830000 0.833333 0.836667 0.840000 0.843333 0.846667 0.850000 0.853333 0.856667 0.860000 0.863333 0.866667 0.870000 0.873333 0.876667 0.880000 0.883333 0.886667 0.890000 0.893333 0.896667 0.900000 0.903333 0.906667 0.910000 0.913333 0.916667 0.920000 0.923333 0.926667 0.930000 0.933333 0.936667 0.940000 0.943333 0.946667 0.950000 0.953333 0.956667 0.960000 0.963333 0.966667 0.970000 0.973333 0.976667 0.980000 0.983333 0.986667 0.990000 0.993333 0.996667 1.000000 
Y_COORDINATES 301 double
0.000000 0.003333 0.006667 0.010000 0.013333 0.016667 0.020000 0.023333 0.026667 0.030000 0.033333 0.036667 0.040000 0.043333 0.046667 0.050000 0.053333 0.056667 0.060000 0.063333 0.066667 0.070000 0.073333 0.076667 0.080000 0.083333 0.086667 0.090000 0.093333 0.096667 0.100000 0.103333 0.106667 0.110000 0.113333 0.116667 0.120000 0.123333 0.126667 0.130000 0.133333 0.136667 0.140000 0.143333 0.146667 0.150000 0.153333 0.156667 0.160000 0.163333 0.166667 0.170000 0.173333 0.176667 0.180000 0.183333 0.186667 0.190000 0.193333 0.196667 0.200000 0.203333 0.206667 0.210000 0.213333 0.216667 0.220000 0.223333 0.226667 0.230000 0.233333 0.236667 0.240000 0.243333 0.246667 0.250000 0.253333 0.256667 0.260000 0.263333 0.266667 0.270000 0.273333 0.276667 0.280000 0.283333 0.286667 0.290000 0.293333 0.296667 0.300000 0.303333 0.306667 0.310000 0.313333 0.316667 0.320000 0.323333 0.326667 0.330000 0.333333 0.336667 0.340000 0.343333 0.346667 0.350000 0.353333 0.356667 0.360000 0.363333 0.366667 0.370000 0.373333 0.376667 0.380000 0.383333 0.386667 0.390000 0.393333 0.396667 0.400000 0.403333 0.406667 0.410000 0.413333 0.416667 0.420000 0.423333 0.426667 0.430000 0.433333 0.436667 0.440000 0.443333 0.446667 0.450000 0.453333 0.456667 0.460000 0.463333 0.466667 0.470000 0.473333 0.476667 0.480000 0.483333 0.486667 0.490000 0.493333 0.496667 0.500000 0.503333 0.506667 0.510000 0.513333 0.516667 0.520000 0.523333 0.526667 0.530000 0.533333 0.536667 0.540000 0.543333 0.546667 0.550000 0.553333 0.556667 0.560000 0.563333 0.566667 0.570000 0.573333 0.576667 0.580000 0.583333 0.586667 0.590000 0.593333 0.596667 0.600000 0.603333 0.606667 0.610000 0.613333 0.616667 0.620000 0.623333 0.626667 0.630000 0.633333 0.636667 0.640000 0.643333 0.646667 0.650000 0.653333 0.656667 0.660000 0.663333 0.666667 0.670000 0.673333 0.676667 0.680000 0.683333 0.686667 0.690000 0.693333 0.696667 0.700000 0.703333 0.706667 0.710000 0.713333 0.716667 0.720000 0.723333 0.726667 0.730000 0.733333 0.736667 0.740000 0.743333 0.746667 0.750000 0.753333 0.756667 0.760000 0.763333 0.766667 0.770000 0.773333 0.776667 0.780000 0.783333 0.786667 0.790000 0.793333 0.796667 0.800000 0.803333 0.806667 0.810000 0.813333 0.816667 0.820000 0.823333 0.826667 0.830000 0.833333 0.836667 0.840000 0.843333 0.846667 0.850000 0.853333 0.856667 0.860000 0.863333 0.866667 0.870000 0.873333 0.876667 0.880000 0.883333 0.886667 0.890000 0.893333 0.896667 0.900000 0.903333 0.906667 0.910000 0.913333 0.916667 0.920000 0.923333 0.926667 0.930000 0.933333 0.936667 0.940000 0.943333 0.946667 0.950000 0.953333 0.956667 0.960000 0.963333 0.966667 0.970000 0.973333 0.976667 0.980000 0.983333 0.986667 0.990000 0.993333 0.996667 1.000000 
Z_COORDINATES 1 double
0
POINT_DATA 90601 
FIELD FieldData 1 
Concentração 1 90601 double 
0.000000 
0.000000 
0.000000 
0.000000 
0.000000 
0.000000 
0.000000 
0.000000 
0.000000 
0.000000 
0.000000 
0.000000 
0.000000 
0.000000 
0.000000 
0.000000 
0.000000 
0.000000 
0.000000 
0.000000 
0.000000 
0.000000 
0.000000 
0.000000 
0.000000 
0.000000 
0.000000 
0.000000 
0.000000 
0.000000 
0.000000 
0.000000 
0.000000 
0.000000 
0.000000 
0.000000 
0.000000 
0.000000 
0.000000 
0.000000 
0.000000 
0.000000 
0.000000 
0.000000 
0.000000 
0.000000 
0.000000 
0.000000 
0.000000 
0.000000 
0.000000 
0.000000 
0.000000 
0.000000 
0.000000 
0.000000 
0.000000 
0.000000 
0.000000 
0.000000 
0.000000 
0.000000 
0.000001 
0.000001 
0.000001 
0.000001 
0.000001 
0.000001 
0.000001 
0.000001 
0.000001 
0.000001 
0.000001 
0.000001 
0.000001 
0.000002 
0.000002 
0.000002 
0.000002 
0.000002 
0.000002 
0.000002 
0.000003 
0.000003 
0.000003 
0.000003 
0.000004 
0.000004 
0.000004 
0.000004 
0.000005 
0.000005 
0.000006 
0.000006 
0.000006 
0.000007 
0.000007 
0.000008 
0.000009 
0.000009 
0.000010 
0.000011 
0.000011 
0.000012 
0.000013 
0.000014 
0.000015 
0.000016 
0.000017 
0.000018 
0.000020 
0.000021 
0.000023 
0.000024 
0.000026 
0.000027 
0.000029 
0.000031 
0.000033 
0.000035 
0.000038 
0.000040 
0.000043 
0.000045 
0.000048 
0.000051 
0.000055 
0.000058 
0.000061 
0.000065 
0.000069 
0.000073 
0.000078 
0.000082 
0.000087 
0.000092 
0.000098 
0.000103 
0.000109 
0.000115 
0.000122 
0.000129 
0.000136 
0.000143 
0.000151 
0.000159 
0.000168 
0.000177 
0.000186 
0.000196 
0.000206 
0.000217 
0.000228 
0.000239 
0.000251 
0.000264 
0.000277 
0.000290 
0.000304 
0.000319 
0.000334 
0.000350 
0.000366 
0.000383 
0.000401 
0.000419 
0.000438 
0.000458 
0.000478 
0.000499 
0.000520 
0.000543 
0.000566 
0.000589 
0.000614 
0.000639 
0.000665 
0.000692 
0.000720 
0.000748 
0.000777 
0.000808 
0.000838 
0.000870 
0.000903 
0.000936 
0.000970 
0.001005 
0.001041 
0.001078 
0.001115 
0.001154 
0.001193 
0.001233 
0.001274 
0.001316 
0.001359 
0.001402 
0.001447 
0.001492 
0.001538 
0.001585 
0.001632 
0.001681 
0.001730 
0.001780 
0.001831 
0.001882 
0.001934 
0.001987 
0.002040 
0.002095 
0.002149 
0.002205 
0.002261 
0.002317 
0.002375 
0.002432 
0.002491 
0.002549 
0.002608 
0.002668 
0.002728 
0.002788 
0.002849 
0.002910 
0.002972 
0.003033 
0.003095 
0.003157 
0.003219 
0.003282 
0.003344 
0.003407 
0.003469 
0.003532 
0.003594 
0.003657 
0.003719 
0.003781 
0.003843 
0.003905 
0.003967 
0.004028 
0.004089 
0.004150 
0.004210 
0.004270 
0.004330 
0.004389 
0.004447 
0.004505 
0.004563 
0.004619 
0.004676 
0.004731 
0.004786 
0.004840 
0.004893 
0.004946 
0.004997 
0.005048 
0.005098 
0.005147 
0.005195 
0.005242 
0.005288 
0.005333 
0.005377 
0.005420 
0.005462 
0.005503 
0.005543 
0.005581 
0.005618 
0.005654 
0.005689 
0.005723 
0.005755 
0.005786 
0.005816 
0.005845 
0.005872 
0.005897 
0.005922 
0.005945 
0.005967 
0.005987 
0.006006 
0.006023 
0.006039 
0.006054 
0.006067 
0.006079 
0.006089 
0.006098 
0.006105 
0.006111 
0.006116 
0.006119 
0.006120 
0.000000 
0.000000 
0.000000 
0.000000 
0.000000 
0.000000 
0.000000 
0.000000 
0.000000 
0.000000 
0.000000 
0.000000 
0.000000 
0.000000 
0.000000 
0.000000 
0.000000 
0.000000 
0.000000 
0.000000 
0.000000 
0.000000 
0.000000 
0.000000 
0.000000 
0.000000 
0.000000 
0.000000 
0.000000 
0.000000 
0.000000 
0.000000 
0.000000 
0.000000 
0.000000 
0.000000 
0.000000 
0.000000 
0.000000 
0.000000 
0.000000 
0.000000 
0.000000 
0.000000 
0.000000 
0.000000 
0.000000 
0.000000 
0.000000 
0.000000 
0.000000 
0.000000 
0.000000 
0.000000 
0.000001 
0.000001 
0.000001 
0.000001 
0.000001 
0.000001 
0.000001 
0.000001 
0.000001 
0.000001 
0.000001 
0.000001 
0.000001 
0.000002 
0.000002 
0.000002 
0.000002 
0.000002 
0.000002 
0.000003 
0.000003 
0.000003 
0.000003 
0.000004 
0.000004 
0.000004 
0.000005 
0.000005 
0.000005 
0.000006 
0.000006 
0.000007 
0.000007 
0.000008 
0.000008 
0.000009 
0.000010 
0.000010 
0.000011 
0.000012 
0.000013 
0.000014 
0.000015 
0.000016 
0.000017 
0.000019 
0.000020 
0.000021 
0.000023 
0.000025 
0.000026 
0.000028 
0.000030 
0.000032 
0.000035 
0.000037 
0.000040 
0.000042 
0.000045 
0.000048 
0.000052 
0.000055 
0.000059 
0.000063 
0.000067 
0.000071 
0.000076 
0.000081 
0.000086 
0.000091 
0.000097 
0.000103 
0.000110 
0.000116 
0.000123 
0.000131 
0.000139 
0.000147 
0.000156 
0.000165 
0.000175 
0.000185 
0.000196 
0.000207 
0.000219 
0.000232 
0.000245 
0.000258 
0.000273 
0.000288 
0.000303 
0.000320 
0.000337 
0.000355 
0.000374 
0.000393 
0.000414 
0.000435 
0.000457 
0.000481 
0.000505 
0.000530 
0.000556 
0.000583 
0.000611 
0.000641 
0.000671 
0.000703 
0.000736 
0.000770 
0.000805 
0.000842 
0.000880 
0.000919 
0.000960 
0.001002 
0.001045 
0.001090 
0.001136 
0.001184 
0.001233 
0.001284 
0.001336 
0.001390 
0.001445 
0.001502 
0.001561 
0.001621 
0.001683 
0.001747 
0.001812 
0.001879 
0.001947 
0.002018 
0.002090 
0.002163 
0.002239 
0.002316 
0.002395 
0.002475 
0.002557 
0.002641 
0.002727 
0.002814 
0.002903 
0.002994 
0.003086 
0.003180 
0.003275 
0.003372 
0.003470 
0.003570 
0.003672 
0.003775 
0.003879 
0.003985 
0.004092 
0.004201 
0.004310 
0.004422 
0.004534 
0.004647 
0.004762 
0.004877 
0.004994 
0.005111 
0.005230 
0.005349 
0.005469 
0.005590 
0.005712 
0.005834 
0.005957 
0.006080 
0.006204 
0.006328 
0.006453 
0.006577 
0.006702 
0.006827 
0.006952 
0.007078 
0.007203 
0.007328 
0.007452 
0.007577 
0.007701 
0.007825 
0.007948 
0.008070 
0.008192 
0.008314 
0.008434 
0.008554 
0.008673 
0.008791 
0.008908 
0.009024 
0.009139 
0.009252 
0.009364 
0.009475 
0.009585 
0.009693 
0.009799 
0.009904 
0.010007 
0.010108 
0.010208 
0.010306 
0.010402 
0.010496 
0.010588 
0.010678 
0.010766 
0.010852 
0.010936 
0.011017 
0.011096 
0.011173 
0.011248 
0.011320 
0.011389 
0.011456 
0.011521 
0.011583 
0.011642 
0.011699 
0.011754 
0.011805 
0.011854 
0.011900 
0.011943 
0.011984 
0.012022 
0.012057 
0.012089 
0.012118 
0.012144 
0.012168 
0.012188 
0.012206 
0.012220 
0.012232 
0.012241 
0.012247 
0.012250 
0.000000 
0.000000 
0.000000 
0.000000 
0.000000 
0.000000 
0.000000 
0.000000 
0.000000 
0.000000 
0.000000 
0.000000 
0.000000 
0.000000 
0.000000 
0.000000 
0.000000 
0.000000 
0.000000 
0.000000 
0.000000 
0.000000 
0.000000 
0.000000 
0.000000 
0.000000 
0.000000 
0.000000 
0.000000 
0.000000 
0.000000 
0.000000 
0.000000 
0.000000 
0.000000 
0.000000 
0.000000 
0.000000 
0.000000 
0.000000 
0.000000 
0.000000 
0.000000 
0.000000 
0.000000 
0.000000 
0.000000 
0.000000 
0.000000 
0.000001 
0.000001 
0.000001 
0.000001 
0.000001 
0.000001 
0.000001 
0.000001 
0.000001 
0.000001 
0.000001 
0.000001 
0.000001 
0.000002 
0.000002 
0.000002 
0.000002 
0.000002 
0.000002 
0.000003 
0.000003 
0.000003 
0.000003 
0.000004 
0.000004 
0.000004 
0.000005 
0.000005 
0.000005 
0.000006 
0.000006 
0.000007 
0.000007 
0.000008 
0.000009 
0.000009 
0.000010 
0.000011 
0.000012 
0.000013 
0.000014 
0.000015 
0.000016 
0.000017 
0.000018 
0.000020 
0.000021 
0.000023 
0.000024 
0.000026 
0.000028 
0.000030 
0.000032 
0.000035 
0.000037 
0.000040 
0.000043 
0.000046 
0.000049 
0.000052 
0.000056 
0.000060 
0.000064 
0.000069 
0.000073 
0.000078 
0.000083 
0.000089 
0.000095 
0.000101 
0.000108 
0.000115 
0.000122 
0.000130 
0.000138 
0.000147 
0.000156 
0.000166 
0.000176 
0.000187 
0.000198 
0.000210 
0.000223 
0.000236 
0.000250 
0.000265 
0.000280 
0.000297 
0.000314 
0.000332 
0.000350 
0.000370 
0.000391 
0.000412 
0.000435 
0.000459 
0.000484 
0.000509 
0.000537 
0.000565 
0.000595 
0.000625 
0.000658 
0.000691 
0.000726 
0.000763 
0.000801 
0.000840 
0.000881 
0.000924 
0.000968 
0.001014 
0.001062 
0.001112 
0.001163 
0.001216 
0.001272 
0.001329 
0.001388 
0.001449 
0.001513 
0.001578 
0.001646 
0.001715 
0.001787 
0.001862 
0.001938 
0.002017 
0.002098 
0.002182 
0.002268 
0.002356 
0.002447 
0.002540 
0.002636 
0.002735 
0.002835 
0.002939 
0.003045 
0.003153 
0.003264 
0.003378 
0.003494 
0.003613 
0.003734 
0.003858 
0.003984 
0.004113 
0.004244 
0.004378 
0.004514 
0.004653 
0.004794 
0.004938 
0.005084 
0.005232 
0.005382 
0.005535 
0.005690 
0.005847 
0.006006 
0.006167 
0.006330 
0.006496 
0.006662 
0.006831 
0.007002 
0.007174 
0.007347 
0.007523 
0.007699 
0.007877 
0.008057 
0.008237 
0.008419 
0.008601 
0.008785 
0.008969 
0.009154 
0.009340 
0.009527 
0.009713 
0.009901 
0.010088 
0.010276 
0.010464 
0.010652 
0.010839 
0.011027 
0.011214 
0.011400 
0.011587 
0.011772 
0.011957 
0.012141 
0.012324 
0.012506 
0.012687 
0.012866 
0.013044 
0.013221 
0.013397 
0.013570 
0.013742 
0.013912 
0.014080 
0.014246 
0.014410 
0.014572 
0.014731 
0.014888 
0.015043 
0.015195 
0.015344 
0.015491 
0.015635 
0.015775 
0.015913 
0.016048 
0.016180 
0.016308 
0.016434 
0.016555 
0.016674 
0.016789 
0.016900 
0.017008 
0.017112 
0.017213 
0.017309 
0.017402 
0.017491 
0.017576 
0.017658 
0.017735 
0.017808 
0.017877 
0.017941 
0.018002 
0.018059 
0.018111 
0.018159 
0.018202 
0.018242 
0.018277 
0.018308 
0.018334 
0.018356 
0.018374 
0.018387 
0.018396 
0.018400 
0.000000 
0.000000 
0.000000 
0.000000 
0.000000 
0.000000 
0.000000 
0.000000 
0.000000 
0.000000 
0.000000 
0.000000 
0.000000 
0.000000 
0.000000 
0.000000 
0.000000 
0.000000 
0.000000 
0.000000 
0.000000 
0.000000 
0.000000 
0.000000 
0.000000 
0.000000 
0.000000 
0.000000 
0.000000 
0.000000 
0.000000 
0.000000 
0.000000 
0.000000 
0.000000 
0.000000 
0.000000 
0.000000 
0.000000 
0.000000 
0.000000 
0.000000 
0.000000 
0.000000 
0.000000 
0.000000 
0.000001 
0.000001 
0.000001 
0.000001 
0.000001 
0.000001 
0.000001 
0.000001 
0.000001 
0.000001 
0.000001 
0.000001 
0.000001 
0.000002 
0.000002 
0.000002 
0.000002 
0.000002 
0.000003 
0.000003 
0.000003 
0.000003 
0.000003 
0.000004 
0.000004 
0.000004 
0.000005 
0.000005 
0.000006 
0.000006 
0.000007 
0.000007 
0.000008 
0.000009 
0.000009 
0.000010 
0.000011 
0.000012 
0.000013 
0.000014 
0.000015 
0.000016 
0.000017 
0.000018 
0.000020 
0.000021 
0.000023 
0.000025 
0.000027 
0.000029 
0.000031 
0.000033 
0.000035 
0.000038 
0.000041 
0.000044 
0.000047 
0.000050 
0.000054 
0.000058 
0.000062 
0.000066 
0.000071 
0.000076 
0.000081 
0.000087 
0.000092 
0.000099 
0.000105 
0.000112 
0.000120 
0.000128 
0.000136 
0.000145 
0.000155 
0.000165 
0.000175 
0.000186 
0.000198 
0.000210 
0.000223 
0.000237 
0.000252 
0.000267 
0.000283 
0.000300 
0.000318 
0.000337 
0.000357 
0.000378 
0.000400 
0.000423 
0.000447 
0.000472 
0.000499 
0.000527 
0.000556 
0.000586 
0.000618 
0.000652 
0.000687 
0.000723 
0.000761 
0.000801 
0.000843 
0.000886 
0.000931 
0.000978 
0.001027 
0.001078 
0.001132 
0.001187 
0.001244 
0.001304 
0.001366 
0.001430 
0.001497 
0.001566 
0.001638 
0.001712 
0.001789 
0.001869 
0.001951 
0.002036 
0.002124 
0.002215 
0.002309 
0.002405 
0.002505 
0.002608 
0.002714 
0.002823 
0.002935 
0.003051 
0.003170 
0.003292 
0.003417 
0.003545 
0.003677 
0.003813 
0.003952 
0.004094 
0.004239 
0.004388 
0.004540 
0.004696 
0.004855 
0.005018 
0.005184 
0.005353 
0.005526 
0.005702 
0.005882 
0.006064 
0.006250 
0.006439 
0.006632 
0.006827 
0.007025 
0.007227 
0.007431 
0.007639 
0.007849 
0.008062 
0.008278 
0.008496 
0.008717 
0.008940 
0.009166 
0.009394 
0.009624 
0.009856 
0.010090 
0.010326 
0.010564 
0.010804 
0.011045 
0.011288 
0.011532 
0.011777 
0.012023 
0.012270 
0.012518 
0.012767 
0.013017 
0.013267 
0.013517 
0.013767 
0.014018 
0.014268 
0.014519 
0.014769 
0.015018 
0.015267 
0.015515 
0.015763 
0.016009 
0.016254 
0.016498 
0.016741 
0.016982 
0.017221 
0.017459 
0.017694 
0.017928 
0.018159 
0.018388 
0.018614 
0.018838 
0.019059 
0.019277 
0.019493 
0.019705 
0.019914 
0.020119 
0.020322 
0.020520 
0.020715 
0.020907 
0.021094 
0.021277 
0.021457 
0.021632 
0.021803 
0.021969 
0.022131 
0.022289 
0.022442 
0.022590 
0.022733 
0.022872 
0.023005 
0.023134 
0.023257 
0.023376 
0.023489 
0.023597 
0.023699 
0.023796 
0.023888 
0.023974 
0.024054 
0.024129 
0.024199 
0.024263 
0.024321 
0.024373 
0.024420 
0.024460 
0.024495 
0.024525 
0.024548 
0.024566 
0.024577 
0.024583 
0.000000 
0.000000 
0.000000 
0.000000 
0.000000 
0.000000 
0.000000 
0.000000 
0.000000 
0.000000 
0.000000 
0.000000 
0.000000 
0.000000 
0.000000 
0.000000 
0.000000 
0.000000 
0.000000 
0.000000 
0.000000 
0.000000 
0.000000 
0.000000 
0.000000 
0.000000 
0.000000 
0.000000 
0.000000 
0.000000 
0.000000 
0.000000 
0.000000 
0.000000 
0.000000 
0.000000 
0.000000 
0.000000 
0.000000 
0.000000 
0.000000 
0.000000 
0.000000 
0.000000 
0.000001 
0.000001 
0.000001 
0.000001 
0.000001 
0.000001 
0.000001 
0.000001 
0.000001 
0.000001 
0.000001 
0.000001 
0.000002 
0.000002 
0.000002 
0.000002 
0.000002 
0.000002 
0.000003 
0.000003 
0.000003 
0.000003 
0.000004 
0.000004 
0.000004 
0.000005 
0.000005 
0.000006 
0.000006 
0.000007 
0.000007 
0.000008 
0.000009 
0.000009 
0.000010 
0.000011 
0.000012 
0.000013 
0.000014 
0.000015 
0.000016 
0.000017 
0.000019 
0.000020 
0.000022 
0.000023 
0.000025 
0.000027 
0.000029 
0.000031 
0.000034 
0.000036 
0.000039 
0.000042 
0.000045 
0.000048 
0.000052 
0.000056 
0.000060 
0.000064 
0.000068 
0.000073 
0.000078 
0.000084 
0.000090 
0.000096 
0.000103 
0.000110 
0.000117 
0.000125 
0.000134 
0.000143 
0.000152 
0.000162 
0.000173 
0.000184 
0.000196 
0.000209 
0.000222 
0.000236 
0.000251 
0.000267 
0.000283 
0.000301 
0.000319 
0.000339 
0.000359 
0.000381 
0.000404 
0.000428 
0.000453 
0.000479 
0.000507 
0.000536 
0.000567 
0.000599 
0.000632 
0.000667 
0.000704 
0.000743 
0.000783 
0.000826 
0.000870 
0.000916 
0.000965 
0.001015 
0.001068 
0.001122 
0.001180 
0.001239 
0.001301 
0.001366 
0.001433 
0.001503 
0.001576 
0.001651 
0.001729 
0.001811 
0.001895 
0.001983 
0.002073 
0.002167 
0.002264 
0.002365 
0.002469 
0.002576 
0.002687 
0.002802 
0.002921 
0.003043 
0.003169 
0.003298 
0.003432 
0.003570 
0.003711 
0.003857 
0.004007 
0.004161 
0.004319 
0.004481 
0.004647 
0.004818 
0.004993 
0.005172 
0.005355 
0.005543 
0.005735 
0.005931 
0.006132 
0.006336 
0.006545 
0.006758 
0.006976 
0.007197 
0.007423 
0.007653 
0.007887 
0.008125 
0.008366 
0.008612 
0.008862 
0.009115 
0.009372 
0.009632 
0.009896 
0.010164 
0.010435 
0.010709 
0.010986 
0.011266 
0.011550 
0.011836 
0.012124 
0.012416 
0.012710 
0.013006 
0.013304 
0.013604 
0.013907 
0.014211 
0.014516 
0.014824 
0.015132 
0.015442 
0.015753 
0.016064 
0.016377 
0.016690 
0.017003 
0.017316 
0.017630 
0.017943 
0.018256 
0.018569 
0.018881 
0.019192 
0.019503 
0.019812 
0.020120 
0.020426 
0.020731 
0.021034 
0.021335 
0.021634 
0.021931 
0.022225 
0.022516 
0.022805 
0.023091 
0.023373 
0.023653 
0.023928 
0.024201 
0.024469 
0.024734 
0.024995 
0.025251 
0.025503 
0.025751 
0.025994 
0.026233 
0.026466 
0.026695 
0.026919 
0.027137 
0.027350 
0.027557 
0.027759 
0.027955 
0.028146 
0.028330 
0.028509 
0.028682 
0.028848 
0.029008 
0.029162 
0.029309 
0.029450 
0.029584 
0.029712 
0.029832 
0.029946 
0.030054 
0.030154 
0.030247 
0.030334 
0.030413 
0.030485 
0.030550 
0.030608 
0.030659 
0.030703 
0.030739 
0.030768 
0.030790 
0.030805 
0.030812 
0.000000 
0.000000 
0.000000 
0.000000 
0.000000 
0.000000 
0.000000 
0.000000 
0.000000 
0.000000 
0.000000 
0.000000 
0.000000 
0.000000 
0.000000 
0.000000 
0.000000 
0.000000 
0.000000 
0.000000 
0.000000 
0.000000 
0.000000 
0.000000 
0.000000 
0.000000 
0.000000 
0.000000 
0.000000 
0.000000 
0.000000 
0.000000 
0.000000 
0.000000 
0.000000 
0.000000 
0.000000 
0.000000 
0.000000 
0.000000 
0.000000 
0.000001 
0.000001 
0.000001 
0.000001 
0.000001 
0.000001 
0.000001 
0.000001 
0.000001 
0.000001 
0.000001 
0.000001 
0.000001 
0.000002 
0.000002 
0.000002 
0.000002 
0.000002 
0.000003 
0.000003 
0.000003 
0.000003 
0.000004 
0.000004 
0.000004 
0.000005 
0.000005 
0.000005 
0.000006 
0.000006 
0.000007 
0.000008 
0.000008 
0.000009 
0.000010 
0.000010 
0.000011 
0.000012 
0.000013 
0.000014 
0.000015 
0.000017 
0.000018 
0.000019 
0.000021 
0.000023 
0.000024 
0.000026 
0.000028 
0.000031 
0.000033 
0.000036 
0.000038 
0.000041 
0.000044 
0.000048 
0.000051 
0.000055 
0.000059 
0.000063 
0.000068 
0.000073 
0.000078 
0.000084 
0.000090 
0.000096 
0.000103 
0.000110 
0.000117 
0.000126 
0.000134 
0.000143 
0.000153 
0.000163 
0.000174 
0.000186 
0.000198 
0.000211 
0.000225 
0.000239 
0.000255 
0.000271 
0.000288 
0.000307 
0.000326 
0.000346 
0.000367 
0.000390 
0.000414 
0.000439 
0.000465 
0.000493 
0.000522 
0.000553 
0.000585 
0.000619 
0.000654 
0.000691 
0.000731 
0.000772 
0.000815 
0.000860 
0.000907 
0.000956 
0.001008 
0.001061 
0.001118 
0.001177 
0.001238 
0.001302 
0.001369 
0.001439 
0.001511 
0.001587 
0.001665 
0.001747 
0.001832 
0.001921 
0.002012 
0.002108 
0.002207 
0.002309 
0.002416 
0.002526 
0.002640 
0.002758 
0.002880 
0.003007 
0.003138 
0.003273 
0.003412 
0.003556 
0.003704 
0.003857 
0.004015 
0.004177 
0.004344 
0.004516 
0.004693 
0.004874 
0.005061 
0.005253 
0.005449 
0.005651 
0.005858 
0.006070 
0.006287 
0.006509 
0.006737 
0.006969 
0.007207 
0.007449 
0.007697 
0.007950 
0.008208 
0.008471 
0.008739 
0.009012 
0.009290 
0.009573 
0.009861 
0.010153 
0.010450 
0.010751 
0.011057 
0.011367 
0.011682 
0.012001 
0.012324 
0.012651 
0.012981 
0.013316 
0.013654 
0.013996 
0.014341 
0.014689 
0.015040 
0.015394 
0.015751 
0.016110 
0.016472 
0.016836 
0.017202 
0.017570 
0.017940 
0.018311 
0.018684 
0.019057 
0.019432 
0.019808 
0.020184 
0.020560 
0.020937 
0.021314 
0.021691 
0.022067 
0.022442 
0.022817 
0.023191 
0.023563 
0.023934 
0.024304 
0.024671 
0.025037 
0.025401 
0.025762 
0.026120 
0.026475 
0.026828 
0.027177 
0.027523 
0.027866 
0.028204 
0.028539 
0.028869 
0.029195 
0.029517 
0.029834 
0.030146 
0.030453 
0.030755 
0.031051 
0.031342 
0.031628 
0.031907 
0.032181 
0.032448 
0.032709 
0.032964 
0.033212 
0.033453 
0.033688 
0.033915 
0.034136 
0.034349 
0.034555 
0.034754 
0.034945 
0.035129 
0.035305 
0.035473 
0.035634 
0.035786 
0.035930 
0.036066 
0.036194 
0.036314 
0.036426 
0.036529 
0.036624 
0.036710 
0.036788 
0.036857 
0.036918 
0.036970 
0.037013 
0.037048 
0.037074 
0.037091 
0.037100 
0.000000 
0.000000 
0.000000 
0.000000 
0.000000 
0.000000 
0.000000 
0.000000 
0.000000 
0.000000 
0.000000 
0.000000 
0.000000 
0.000000 
0.000000 
0.000000 
0.000000 
0.000000 
0.000000 
0.000000 
0.000000 
0.000000 
0.000000 
0.000000 
0.000000 
0.000000 
0.000000 
0.000000 
0.000000 
0.000000 
0.000000 
0.000000 
0.000000 
0.000000 
0.000000 
0.000000 
0.000000 
0.000000 
0.000000 
0.000000 
0.000001 
0.000001 
0.000001 
0.000001 
0.000001 
0.000001 
0.000001 
0.000001 
0.000001 
0.000001 
0.000001 
0.000001 
0.000002 
0.000002 
0.000002 
0.000002 
0.000002 
0.000003 
0.000003 
0.000003 
0.000003 
0.000004 
0.000004 
0.000004 
0.000005 
0.000005 
0.000005 
0.000006 
0.000006 
0.000007 
0.000008 
0.000008 
0.000009 
0.000010 
0.000011 
0.000011 
0.000012 
0.000013 
0.000015 
0.000016 
0.000017 
0.000018 
0.000020 
0.000021 
0.000023 
0.000025 
0.000027 
0.000029 
0.000031 
0.000034 
0.000037 
0.000039 
0.000042 
0.000046 
0.000049 
0.000053 
0.000057 
0.000061 
0.000065 
0.000070 
0.000075 
0.000081 
0.000087 
0.000093 
0.000100 
0.000107 
0.000114 
0.000122 
0.000131 
0.000140 
0.000150 
0.000160 
0.000171 
0.000182 
0.000195 
0.000208 
0.000221 
0.000236 
0.000252 
0.000268 
0.000285 
0.000304 
0.000323 
0.000344 
0.000365 
0.000388 
0.000412 
0.000438 
0.000464 
0.000493 
0.000522 
0.000554 
0.000587 
0.000621 
0.000658 
0.000696 
0.000736 
0.000779 
0.000823 
0.000869 
0.000918 
0.000969 
0.001023 
0.001079 
0.001137 
0.001198 
0.001263 
0.001329 
0.001399 
0.001472 
0.001548 
0.001628 
0.001710 
0.001796 
0.001886 
0.001979 
0.002076 
0.002177 
0.002282 
0.002391 
0.002504 
0.002621 
0.002743 
0.002869 
0.003000 
0.003135 
0.003275 
0.003420 
0.003569 
0.003724 
0.003884 
0.004049 
0.004219 
0.004395 
0.004576 
0.004762 
0.004954 
0.005152 
0.005355 
0.005564 
0.005778 
0.005999 
0.006225 
0.006458 
0.006696 
0.006940 
0.007190 
0.007447 
0.007709 
0.007977 
0.008251 
0.008532 
0.008818 
0.009110 
0.009408 
0.009712 
0.010022 
0.010338 
0.010659 
0.010986 
0.011319 
0.011657 
0.012001 
0.012351 
0.012705 
0.013065 
0.013430 
0.013799 
0.014174 
0.014553 
0.014937 
0.015326 
0.015718 
0.016115 
0.016516 
0.016921 
0.017329 
0.017741 
0.018156 
0.018574 
0.018996 
0.019420 
0.019846 
0.020275 
0.020706 
0.021139 
0.021573 
0.022009 
0.022447 
0.022885 
0.023324 
0.023764 
0.024204 
0.024645 
0.025085 
0.025525 
0.025964 
0.026403 
0.026840 
0.027277 
0.027712 
0.028145 
0.028576 
0.029005 
0.029431 
0.029855 
0.030276 
0.030694 
0.031108 
0.031519 
0.031926 
0.032329 
0.032728 
0.033122 
0.033512 
0.033896 
0.034276 
0.034650 
0.035019 
0.035382 
0.035739 
0.036091 
0.036435 
0.036774 
0.037105 
0.037430 
0.037748 
0.038059 
0.038362 
0.038658 
0.038946 
0.039227 
0.039499 
0.039764 
0.040020 
0.040268 
0.040507 
0.040738 
0.040960 
0.041173 
0.041377 
0.041573 
0.041759 
0.041936 
0.042103 
0.042261 
0.042410 
0.042549 
0.042678 
0.042798 
0.042908 
0.043008 
0.043098 
0.043178 
0.043249 
0.043309 
0.043359 
0.043400 
0.043430 
0.043450 
0.043460 
0.000000 
0.000000 
0.000000 
0.000000 
0.000000 
0.000000 
0.000000 
0.000000 
0.000000 
0.000000 
0.000000 
0.000000 
0.000000 
0.000000 
0.000000 
0.000000 
0.000000 
0.000000 
0.000000 
0.000000 
0.000000 
0.000000 
0.000000 
0.000000 
0.000000 
0.000000 
0.000000 
0.000000 
0.000000 
0.000000 
0.000000 
0.000000 
0.000000 
0.000000 
0.000000 
0.000000 
0.000000 
0.000000 
0.000001 
0.000001 
0.000001 
0.000001 
0.000001 
0.000001 
0.000001 
0.000001 
0.000001 
0.000001 
0.000001 
0.000001 
0.000002 
0.000002 
0.000002 
0.000002 
0.000002 
0.000003 
0.000003 
0.000003 
0.000003 
0.000004 
0.000004 
0.000004 
0.000005 
0.000005 
0.000005 
0.000006 
0.000006 
0.000007 
0.000008 
0.000008 
0.000009 
0.000010 
0.000011 
0.000011 
0.000012 
0.000013 
0.000015 
0.000016 
0.000017 
0.000018 
0.000020 
0.000022 
0.000023 
0.000025 
0.000027 
0.000029 
0.000032 
0.000034 
0.000037 
0.000040 
0.000043 
0.000046 
0.000050 
0.000053 
0.000057 
0.000062 
0.000066 
0.000071 
0.000077 
0.000082 
0.000088 
0.000095 
0.000102 
0.000109 
0.000117 
0.000125 
0.000134 
0.000143 
0.000153 
0.000164 
0.000175 
0.000187 
0.000200 
0.000213 
0.000228 
0.000243 
0.000259 
0.000276 
0.000294 
0.000314 
0.000334 
0.000355 
0.000378 
0.000402 
0.000427 
0.000454 
0.000482 
0.000512 
0.000543 
0.000576 
0.000611 
0.000648 
0.000686 
0.000727 
0.000769 
0.000814 
0.000861 
0.000910 
0.000962 
0.001016 
0.001073 
0.001133 
0.001195 
0.001261 
0.001329 
0.001400 
0.001475 
0.001553 
0.001635 
0.001720 
0.001808 
0.001901 
0.001997 
0.002097 
0.002202 
0.002311 
0.002424 
0.002541 
0.002663 
0.002790 
0.002922 
0.003058 
0.003200 
0.003346 
0.003498 
0.003656 
0.003818 
0.003987 
0.004161 
0.004341 
0.004526 
0.004718 
0.004916 
0.005120 
0.005330 
0.005546 
0.005769 
0.005998 
0.006234 
0.006476 
0.006725 
0.006981 
0.007244 
0.007513 
0.007789 
0.008072 
0.008362 
0.008658 
0.008962 
0.009272 
0.009590 
0.009914 
0.010245 
0.010583 
0.010927 
0.011279 
0.011637 
0.012002 
0.012373 
0.012751 
0.013135 
0.013525 
0.013922 
0.014325 
0.014734 
0.015149 
0.015569 
0.015996 
0.016427 
0.016864 
0.017306 
0.017754 
0.018206 
0.018662 
0.019124 
0.019589 
0.020059 
0.020532 
0.021009 
0.021490 
0.021974 
0.022461 
0.022950 
0.023443 
0.023937 
0.024434 
0.024933 
0.025433 
0.025934 
0.026437 
0.026940 
0.027444 
0.027948 
0.028453 
0.028957 
0.029461 
0.029963 
0.030465 
0.030966 
0.031465 
0.031962 
0.032457 
0.032950 
0.033440 
0.033928 
0.034412 
0.034893 
0.035370 
0.035843 
0.036312 
0.036776 
0.037236 
0.037691 
0.038141 
0.038585 
0.039024 
0.039457 
0.039883 
0.040304 
0.040717 
0.041124 
0.041524 
0.041917 
0.042302 
0.042680 
0.043050 
0.043412 
0.043765 
0.044110 
0.044447 
0.044775 
0.045094 
0.045404 
0.045705 
0.045996 
0.046278 
0.046550 
0.046812 
0.047065 
0.047307 
0.047539 
0.047761 
0.047973 
0.048174 
0.048364 
0.048543 
0.048712 
0.048870 
0.049017 
0.049153 
0.049278 
0.049392 
0.049494 
0.049585 
0.049665 
0.049734 
0.049791 
0.049837 
0.049871 
0.049894 
0.049905 
0.000000 
0.000000 
0.000000 
0.000000 
0.000000 
0.000000 
0.000000 
0.000000 
0.000000 
0.000000 
0.000000 
0.000000 
0.000000 
0.000000 
0.000000 
0.000000 
0.000000 
0.000000 
0.000000 
0.000000 
0.000000 
0.000000 
0.000000 
0.000000 
0.000000 
0.000000 