# vtk DataFile Version 3.0
results.vtk
ASCII
DATASET RECTILINEAR_GRID
DIMENSIONS 301 301 1
X_COORDINATES 301 double
0.000000 0.003333 0.006667 0.010000 0.013333 0.016667 0.020000 0.023333 0.026667 0.030000 0.033333 0.036667 0.040000 0.043333 0.046667 0.050000 0.053333 0.056667 0.060000 0.063333 0.066667 0.070000 0.073333 0.076667 0.080000 0.083333 0.086667 0.090000 0.093333 0.096667 0.100000 0.103333 0.106667 0.110000 0.113333 0.116667 0.120000 0.123333 0.126667 0.130000 0.133333 0.136667 0.140000 0.143333 0.146667 0.150000 0.153333 0.156667 0.160000 0.163333 0.166667 0.170000 0.173333 0.176667 0.180000 0.183333 0.186667 0.190000 0.193333 0.196667 0.200000 0.203333 0.206667 0.210000 0.213333 0.216667 0.220000 0.223333 0.226667 0.230000 0.233333 0.236667 0.240000 0.243333 0.246667 0.250000 0.253333 0.256667 0.260000 0.263333 0.266667 0.270000 0.273333 0.276667 0.280000 0.283333 0.286667 0.290000 0.293333 0.296667 0.300000 0.303333 0.306667 0.310000 0.313333 0.316667 0.320000 0.323333 0.326667 0.330000 0.333333 0.336667 0.340000 0.343333 0.346667 0.350000 0.353333 0.356667 0.360000 0.363333 0.366667 0.370000 0.373333 0.376667 0.380000 0.383333 0.386667 0.390000 0.393333 0.396667 0.400000 0.403333 0.406667 0.410000 0.413333 0.416667 0.420000 0.423333 0.426667 0.430000 0.433333 0.436667 0.440000 0.443333 0.446667 0.450000 0.453333 0.456667 0.460000 0.463333 0.466667 0.470000 0.473333 0.476667 0.480000 0.483333 0.486667 0.490000 0.493333 0.496667 0.500000 0.503333 0.506667 0.510000 0.513333 0.516667 0.520000 0.523333 0.526667 0.530000 0.533333 0.536667 0.540000 0.543333 0.546667 0.550000 0.553333 0.556667 0.560000 0.563333 0.566667 0.570000 0.573333 0.576667 0.580000 0.583333 0.586667 0.590000 0.593333 0.596667 0.600000 0.603333 0.606667 0.610000 0.613333 0.616667 0.620000 0.623333 0.626667 0.630000 0.633333 0.636667 0.640000 0.643333 0.646667 0.650000 0.653333 0.656667 0.660000 0.663333 0.666667 0.670000 0.673333 0.676667 0.680000 0.683333 0.686667 0.690000 0.693333 0.696667 0.700000 0.703333 0.706667 0.710000 0.713333 0.716667 0.720000 0.723333 0.726667 0.730000 0.733333 0.736667 0.740000 0.743333 0.746667 0.750000 0.753333 0.756667 0.760000 0.763333 0.766667 0.770000 0.773333 0.776667 0.780000 0.783333 0.786667 0.790000 0.793333 0.796667 0.800000 0.803333 0.806667 0.810000 0.813333 0.816667 0.820000 0.823333 0.826667 0.830000 0.833333 0.836667 0.840000 0.843333 0.846667 0.850000 0.853333 0.856667 0.860000 0.863333 0.866667 0.870000 0.873333 0.876667 0.880000 0.883333 0.886667 0.890000 0.893333 0.896667 0.900000 0.903333 0.906667 0.910000 0.913333 0.916667 0.920000 0.923333 0.926667 0.930000 0.933333 0.936667 0.940000 0.943333 0.946667 0.950000 0.953333 0.956667 0.960000 0.963333 0.966667 0.970000 0.973333 0.976667 0.980000 0.983333 0.986667 0.990000 0.993333 0.996667 1.000000 
Y_COORDINATES 301 double
0.000000 0.003333 0.006667 0.010000 0.013333 0.016667 0.020000 0.023333 0.026667 0.030000 0.033333 0.036667 0.040000 0.043333 0.046667 0.050000 0.053333 0.056667 0.060000 0.063333 0.066667 0.070000 0.073333 0.076667 0.080000 0.083333 0.086667 0.090000 0.093333 0.096667 0.100000 0.103333 0.106667 0.110000 0.113333 0.116667 0.120000 0.123333 0.126667 0.130000 0.133333 0.136667 0.140000 0.143333 0.146667 0.150000 0.153333 0.156667 0.160000 0.163333 0.166667 0.170000 0.173333 0.176667 0.180000 0.183333 0.186667 0.190000 0.193333 0.196667 0.200000 0.203333 0.206667 0.210000 0.213333 0.216667 0.220000 0.223333 0.226667 0.230000 0.233333 0.236667 0.240000 0.243333 0.246667 0.250000 0.253333 0.256667 0.260000 0.263333 0.266667 0.270000 0.273333 0.276667 0.280000 0.283333 0.286667 0.290000 0.293333 0.296667 0.300000 0.303333 0.306667 0.310000 0.313333 0.316667 0.320000 0.323333 0.326667 0.330000 0.333333 0.336667 0.340000 0.343333 0.346667 0.350000 0.353333 0.356667 0.360000 0.363333 0.366667 0.370000 0.373333 0.376667 0.380000 0.383333 0.386667 0.390000 0.393333 0.396667 0.400000 0.403333 0.406667 0.410000 0.413333 0.416667 0.420000 0.423333 0.426667 0.430000 0.433333 0.436667 0.440000 0.443333 0.446667 0.450000 0.453333 0.456667 0.460000 0.463333 0.466667 0.470000 0.473333 0.476667 0.480000 0.483333 0.486667 0.490000 0.493333 0.496667 0.500000 0.503333 0.506667 0.510000 0.513333 0.516667 0.520000 0.523333 0.526667 0.530000 0.533333 0.536667 0.540000 0.543333 0.546667 0.550000 0.553333 0.556667 0.560000 0.563333 0.566667 0.570000 0.573333 0.576667 0.580000 0.583333 0.586667 0.590000 0.593333 0.596667 0.600000 0.603333 0.606667 0.610000 0.613333 0.616667 0.620000 0.623333 0.626667 0.630000 0.633333 0.636667 0.640000 0.643333 0.646667 0.650000 0.653333 0.656667 0.660000 0.663333 0.666667 0.670000 0.673333 0.676667 0.680000 0.683333 0.686667 0.690000 0.693333 0.696667 0.700000 0.703333 0.706667 0.710000 0.713333 0.716667 0.720000 0.723333 0.726667 0.730000 0.733333 0.736667 0.740000 0.743333 0.746667 0.750000 0.753333 0.756667 0.760000 0.763333 0.766667 0.770000 0.773333 0.776667 0.780000 0.783333 0.786667 0.790000 0.793333 0.796667 0.800000 0.803333 0.806667 0.810000 0.813333 0.816667 0.820000 0.823333 0.826667 0.830000 0.833333 0.836667 0.840000 0.843333 0.846667 0.850000 0.853333 0.856667 0.860000 0.863333 0.866667 0.870000 0.873333 0.876667 0.880000 0.883333 0.886667 0.890000 0.893333 0.896667 0.900000 0.903333 0.906667 0.910000 0.913333 0.916667 0.920000 0.923333 0.926667 0.930000 0.933333 0.936667 0.940000 0.943333 0.946667 0.950000 0.953333 0.956667 0.960000 0.963333 0.966667 0.970000 0.973333 0.976667 0.980000 0.983333 0.986667 0.990000 0.993333 0.996667 1.000000 
Z_COORDINATES 1 double
0
POINT_DATA 90601 
FIELD FieldData 1 
Concentração 1 90601 double 
0.000000 
0.000000 
0.000000 
0.000000 
0.000000 
0.000000 
0.000000 
0.000000 
0.000000 
0.000000 
0.000000 
0.000000 
0.000000 
0.000000 
0.000000 
0.000000 
0.000000 
0.000000 
0.000000 
0.000000 
0.000000 
0.000000 
0.000000 
0.000000 
0.000000 
0.000000 
0.000000 
0.000000 
0.000000 
0.000000 
0.000000 
0.000000 
0.000000 
0.000000 
0.000000 
0.000000 
0.000000 
0.000000 
0.000000 
0.000000 
0.000000 
0.000000 
0.000000 
0.000000 
0.000000 
0.000000 
0.000000 
0.000000 
0.000000 
0.000000 
0.000000 
0.000000 
0.000000 
0.000000 
0.000000 
0.000000 
0.000000 
0.000000 
0.000000 
0.000000 
0.000000 
0.000000 
0.000000 
0.000000 
0.000000 
0.000000 
0.000000 
0.000000 
0.000000 
0.000000 
0.000000 
0.000000 
0.000000 
0.000000 
0.000000 
0.000000 
0.000000 
0.000000 
0.000000 
0.000000 
0.000000 
0.000000 
0.000000 
0.000000 
0.000000 
0.000000 
0.000000 
0.000000 
0.000000 
0.000000 
0.000000 
0.000000 
0.000000 
0.000000 
0.000000 
0.000000 
0.000000 
0.000000 
0.000000 
0.000001 
0.000001 
0.000001 
0.000001 
0.000001 
0.000001 
0.000001 
0.000001 
0.000001 
0.000001 
0.000001 
0.000001 
0.000001 
0.000001 
0.000001 
0.000002 
0.000002 
0.000002 
0.000002 
0.000002 
0.000002 
0.000002 
0.000003 
0.000003 
0.000003 
0.000003 
0.000003 
0.000004 
0.000004 
0.000004 
0.000004 
0.000005 
0.000005 
0.000005 
0.000006 
0.000006 
0.000006 
0.000007 
0.000007 
0.000008 
0.000008 
0.000009 
0.000009 
0.000010 
0.000010 
0.000011 
0.000011 
0.000012 
0.000013 
0.000014 
0.000014 
0.000015 
0.000016 
0.000017 
0.000018 
0.000019 
0.000020 
0.000021 
0.000022 
0.000024 
0.000025 
0.000026 
0.000028 
0.000029 
0.000031 
0.000032 
0.000034 
0.000036 
0.000038 
0.000039 
0.000041 
0.000043 
0.000046 
0.000048 
0.000050 
0.000052 
0.000055 
0.000058 
0.000060 
0.000063 
0.000066 
0.000069 
0.000072 
0.000075 
0.000079 
0.000082 
0.000086 
0.000089 
0.000093 
0.000097 
0.000101 
0.000105 
0.000109 
0.000114 
0.000118 
0.000123 
0.000128 
0.000133 
0.000138 
0.000143 
0.000148 
0.000154 
0.000160 
0.000165 
0.000171 
0.000177 
0.000184 
0.000190 
0.000197 
0.000203 
0.000210 
0.000217 
0.000224 
0.000231 
0.000239 
0.000246 
0.000254 
0.000262 
0.000270 
0.000278 
0.000286 
0.000294 
0.000303 
0.000311 
0.000320 
0.000329 
0.000337 
0.000346 
0.000356 
0.000365 
0.000374 
0.000384 
0.000393 
0.000403 
0.000412 
0.000422 
0.000432 
0.000442 
0.000452 
0.000462 
0.000472 
0.000482 
0.000492 
0.000502 
0.000512 
0.000523 
0.000533 
0.000543 
0.000553 
0.000563 
0.000574 
0.000584 
0.000594 
0.000604 
0.000614 
0.000624 
0.000634 
0.000644 
0.000653 
0.000663 
0.000673 
0.000682 
0.000692 
0.000701 
0.000710 
0.000719 
0.000728 
0.000736 
0.000745 
0.000753 
0.000762 
0.000770 
0.000777 
0.000785 
0.000793 
0.000800 
0.000807 
0.000814 
0.000820 
0.000827 
0.000833 
0.000839 
0.000844 
0.000850 
0.000855 
0.000860 
0.000865 
0.000869 
0.000873 
0.000877 
0.000880 
0.000884 
0.000887 
0.000889 
0.000892 
0.000894 
0.000896 
0.000897 
0.000898 
0.000899 
0.000900 
0.000900 
0.000000 
0.000000 
0.000000 
0.000000 
0.000000 
0.000000 
0.000000 
0.000000 
0.000000 
0.000000 
0.000000 
0.000000 
0.000000 
0.000000 
0.000000 
0.000000 
0.000000 
0.000000 
0.000000 
0.000000 
0.000000 
0.000000 
0.000000 
0.000000 
0.000000 
0.000000 
0.000000 
0.000000 
0.000000 
0.000000 
0.000000 
0.000000 
0.000000 
0.000000 
0.000000 
0.000000 
0.000000 
0.000000 
0.000000 
0.000000 
0.000000 
0.000000 
0.000000 
0.000000 
0.000000 
0.000000 
0.000000 
0.000000 
0.000000 
0.000000 
0.000000 
0.000000 
0.000000 
0.000000 
0.000000 
0.000000 
0.000000 
0.000000 
0.000000 
0.000000 
0.000000 
0.000000 
0.000000 
0.000000 
0.000000 
0.000000 
0.000000 
0.000000 
0.000000 
0.000000 
0.000000 
0.000000 
0.000000 
0.000000 
0.000000 
0.000000 
0.000000 
0.000000 
0.000000 
0.000000 
0.000000 
0.000000 
0.000000 
0.000000 
0.000000 
0.000000 
0.000000 
0.000000 
0.000000 
0.000000 
0.000001 
0.000001 
0.000001 
0.000001 
0.000001 
0.000001 
0.000001 
0.000001 
0.000001 
0.000001 
0.000001 
0.000001 
0.000001 
0.000001 
0.000002 
0.000002 
0.000002 
0.000002 
0.000002 
0.000002 
0.000002 
0.000003 
0.000003 
0.000003 
0.000003 
0.000003 
0.000004 
0.000004 
0.000004 
0.000004 
0.000005 
0.000005 
0.000005 
0.000006 
0.000006 
0.000007 
0.000007 
0.000008 
0.000008 
0.000009 
0.000009 
0.000010 
0.000010 
0.000011 
0.000012 
0.000013 
0.000013 
0.000014 
0.000015 
0.000016 
0.000017 
0.000018 
0.000019 
0.000021 
0.000022 
0.000023 
0.000024 
0.000026 
0.000027 
0.000029 
0.000031 
0.000033 
0.000034 
0.000036 
0.000038 
0.000041 
0.000043 
0.000045 
0.000048 
0.000050 
0.000053 
0.000056 
0.000059 
0.000062 
0.000065 
0.000068 
0.000072 
0.000075 
0.000079 
0.000083 
0.000087 
0.000092 
0.000096 
0.000101 
0.000106 
0.000111 
0.000116 
0.000121 
0.000127 
0.000133 
0.000139 
0.000145 
0.000151 
0.000158 
0.000165 
0.000172 
0.000179 
0.000187 
0.000195 
0.000203 
0.000211 
0.000220 
0.000229 
0.000238 
0.000247 
0.000257 
0.000267 
0.000277 
0.000288 
0.000299 
0.000310 
0.000321 
0.000333 
0.000345 
0.000357 
0.000369 
0.000382 
0.000395 
0.000409 
0.000422 
0.000436 
0.000451 
0.000465 
0.000480 
0.000495 
0.000510 
0.000526 
0.000542 
0.000558 
0.000574 
0.000591 
0.000608 
0.000625 
0.000643 
0.000660 
0.000678 
0.000696 
0.000715 
0.000733 
0.000752 
0.000771 
0.000790 
0.000809 
0.000829 
0.000849 
0.000868 
0.000888 
0.000908 
0.000928 
0.000948 
0.000969 
0.000989 
0.001009 
0.001030 
0.001050 
0.001071 
0.001091 
0.001112 
0.001132 
0.001153 
0.001173 
0.001193 
0.001214 
0.001234 
0.001254 
0.001274 
0.001293 
0.001313 
0.001332 
0.001352 
0.001371 
0.001389 
0.001408 
0.001426 
0.001444 
0.001462 
0.001480 
0.001497 
0.001514 
0.001530 
0.001546 
0.001562 
0.001577 
0.001592 
0.001607 
0.001621 
0.001635 
0.001648 
0.001661 
0.001673 
0.001685 
0.001696 
0.001707 
0.001718 
0.001727 
0.001737 
0.001746 
0.001754 
0.001761 
0.001769 
0.001775 
0.001781 
0.001786 
0.001791 
0.001795 
0.001799 
0.001802 
0.001804 
0.001806 
0.001807 
0.001808 
0.000000 
0.000000 
0.000000 
0.000000 
0.000000 
0.000000 
0.000000 
0.000000 
0.000000 
0.000000 
0.000000 
0.000000 
0.000000 
0.000000 
0.000000 
0.000000 
0.000000 
0.000000 
0.000000 
0.000000 
0.000000 
0.000000 
0.000000 
0.000000 
0.000000 
0.000000 
0.000000 
0.000000 
0.000000 
0.000000 
0.000000 
0.000000 
0.000000 
0.000000 
0.000000 
0.000000 
0.000000 
0.000000 
0.000000 
0.000000 
0.000000 
0.000000 
0.000000 
0.000000 
0.000000 
0.000000 
0.000000 
0.000000 
0.000000 
0.000000 
0.000000 
0.000000 
0.000000 
0.000000 
0.000000 
0.000000 
0.000000 
0.000000 
0.000000 
0.000000 
0.000000 
0.000000 
0.000000 
0.000000 
0.000000 
0.000000 
0.000000 
0.000000 
0.000000 
0.000000 
0.000000 
0.000000 
0.000000 
0.000000 
0.000000 
0.000000 
0.000000 
0.000000 
0.000000 
0.000000 
0.000000 
0.000000 
0.000000 
0.000000 
0.000000 
0.000001 
0.000001 
0.000001 
0.000001 
0.000001 
0.000001 
0.000001 
0.000001 
0.000001 
0.000001 
0.000001 
0.000001 
0.000001 
0.000001 
0.000002 
0.000002 
0.000002 
0.000002 
0.000002 
0.000002 
0.000002 
0.000003 
0.000003 
0.000003 
0.000003 
0.000004 
0.000004 
0.000004 
0.000004 
0.000005 
0.000005 
0.000005 
0.000006 
0.000006 
0.000007 
0.000007 
0.000008 
0.000008 
0.000009 
0.000009 
0.000010 
0.000011 
0.000011 
0.000012 
0.000013 
0.000014 
0.000015 
0.000016 
0.000017 
0.000018 
0.000019 
0.000020 
0.000022 
0.000023 
0.000024 
0.000026 
0.000028 
0.000029 
0.000031 
0.000033 
0.000035 
0.000037 
0.000039 
0.000042 
0.000044 
0.000047 
0.000049 
0.000052 
0.000055 
0.000058 
0.000061 
0.000065 
0.000068 
0.000072 
0.000076 
0.000080 
0.000084 
0.000089 
0.000093 
0.000098 
0.000103 
0.000109 
0.000114 
0.000120 
0.000126 
0.000132 
0.000139 
0.000146 
0.000153 
0.000160 
0.000167 
0.000175 
0.000184 
0.000192 
0.000201 
0.000210 
0.000219 
0.000229 
0.000239 
0.000250 
0.000260 
0.000272 
0.000283 
0.000295 
0.000307 
0.000320 
0.000333 
0.000346 
0.000360 
0.000375 
0.000389 
0.000404 
0.000420 
0.000436 
0.000452 
0.000469 
0.000486 
0.000504 
0.000522 
0.000540 
0.000559 
0.000578 
0.000598 
0.000618 
0.000639 
0.000660 
0.000682 
0.000704 
0.000726 
0.000749 
0.000772 
0.000796 
0.000820 
0.000844 
0.000869 
0.000894 
0.000920 
0.000946 
0.000972 
0.000999 
0.001026 
0.001054 
0.001081 
0.001109 
0.001138 
0.001166 
0.001195 
0.001224 
0.001254 
0.001283 
0.001313 
0.001343 
0.001373 
0.001404 
0.001434 
0.001465 
0.001496 
0.001526 
0.001557 
0.001588 
0.001619 
0.001650 
0.001681 
0.001712 
0.001743 
0.001774 
0.001804 
0.001835 
0.001865 
0.001895 
0.001925 
0.001955 
0.001985 
0.002014 
0.002043 
0.002072 
0.002100 
0.002128 
0.002156 
0.002183 
0.002210 
0.002236 
0.002262 
0.002288 
0.002312 
0.002337 
0.002361 
0.002384 
0.002406 
0.002428 
0.002450 
0.002470 
0.002490 
0.002510 
0.002528 
0.002546 
0.002564 
0.002580 
0.002596 
0.002610 
0.002624 
0.002638 
0.002650 
0.002662 
0.002672 
0.002682 
0.002691 
0.002699 
0.002707 
0.002713 
0.002718 
0.002723 
0.002727 
0.002729 
0.002731 
0.002732 
0.000000 
0.000000 
0.000000 
0.000000 
0.000000 
0.000000 
0.000000 
0.000000 
0.000000 
0.000000 
0.000000 
0.000000 
0.000000 
0.000000 
0.000000 
0.000000 
0.000000 
0.000000 
0.000000 
0.000000 
0.000000 
0.000000 
0.000000 
0.000000 
0.000000 
0.000000 
0.000000 
0.000000 
0.000000 
0.000000 
0.000000 
0.000000 
0.000000 
0.000000 
0.000000 
0.000000 
0.000000 
0.000000 
0.000000 
0.000000 
0.000000 
0.000000 
0.000000 
0.000000 
0.000000 
0.000000 
0.000000 
0.000000 
0.000000 
0.000000 
0.000000 
0.000000 
0.000000 
0.000000 
0.000000 
0.000000 
0.000000 
0.000000 
0.000000 
0.000000 
0.000000 
0.000000 
0.000000 
0.000000 
0.000000 
0.000000 
0.000000 
0.000000 
0.000000 
0.000000 
0.000000 
0.000000 
0.000000 
0.000000 
0.000000 
0.000000 
0.000000 
0.000000 
0.000000 
0.000000 
0.000000 
0.000001 
0.000001 
0.000001 
0.000001 
0.000001 
0.000001 
0.000001 
0.000001 
0.000001 
0.000001 
0.000001 
0.000001 
0.000001 
0.000001 
0.000002 
0.000002 
0.000002 
0.000002 
0.000002 
0.000002 
0.000002 
0.000003 
0.000003 
0.000003 
0.000003 
0.000004 
0.000004 
0.000004 
0.000004 
0.000005 
0.000005 
0.000006 
0.000006 
0.000006 
0.000007 
0.000007 
0.000008 
0.000008 
0.000009 
0.000010 
0.000010 
0.000011 
0.000012 
0.000013 
0.000014 
0.000015 
0.000016 
0.000017 
0.000018 
0.000019 
0.000020 
0.000021 
0.000023 
0.000024 
0.000026 
0.000028 
0.000029 
0.000031 
0.000033 
0.000035 
0.000037 
0.000040 
0.000042 
0.000045 
0.000047 
0.000050 
0.000053 
0.000056 
0.000059 
0.000063 
0.000067 
0.000070 
0.000074 
0.000079 
0.000083 
0.000088 
0.000092 
0.000097 
0.000103 
0.000108 
0.000114 
0.000120 
0.000126 
0.000133 
0.000140 
0.000147 
0.000154 
0.000162 
0.000170 
0.000179 
0.000188 
0.000197 
0.000206 
0.000216 
0.000226 
0.000237 
0.000248 
0.000259 
0.000271 
0.000284 
0.000296 
0.000309 
0.000323 
0.000337 
0.000352 
0.000367 
0.000382 
0.000398 
0.000415 
0.000432 
0.000450 
0.000468 
0.000487 
0.000506 
0.000526 
0.000546 
0.000567 
0.000588 
0.000610 
0.000633 
0.000656 
0.000680 
0.000704 
0.000729 
0.000755 
0.000781 
0.000807 
0.000835 
0.000863 
0.000891 
0.000920 
0.000950 
0.000980 
0.001011 
0.001042 
0.001074 
0.001106 
0.001139 
0.001173 
0.001207 
0.001241 
0.001276 
0.001312 
0.001348 
0.001384 
0.001421 
0.001459 
0.001496 
0.001535 
0.001573 
0.001612 
0.001651 
0.001691 
0.001731 
0.001771 
0.001811 
0.001852 
0.001893 
0.001934 
0.001975 
0.002017 
0.002058 
0.002100 
0.002141 
0.002183 
0.002225 
0.002266 
0.002308 
0.002350 
0.002391 
0.002432 
0.002473 
0.002514 
0.002555 
0.002595 
0.002635 
0.002675 
0.002715 
0.002754 
0.002792 
0.002830 
0.002868 
0.002905 
0.002942 
0.002978 
0.003013 
0.003048 
0.003082 
0.003116 
0.003149 
0.003181 
0.003212 
0.003242 
0.003272 
0.003300 
0.003328 
0.003355 
0.003381 
0.003406 
0.003430 
0.003453 
0.003475 
0.003496 
0.003516 
0.003535 
0.003553 
0.003570 
0.003585 
0.003600 
0.003613 
0.003625 
0.003636 
0.003646 
0.003654 
0.003662 
0.003668 
0.003673 
0.003676 
0.003679 
0.003680 
0.000000 
0.000000 
0.000000 
0.000000 
0.000000 
0.000000 
0.000000 
0.000000 
0.000000 
0.000000 
0.000000 
0.000000 
0.000000 
0.000000 
0.000000 
0.000000 
0.000000 
0.000000 
0.000000 
0.000000 
0.000000 
0.000000 
0.000000 
0.000000 
0.000000 
0.000000 
0.000000 
0.000000 
0.000000 
0.000000 
0.000000 
0.000000 
0.000000 
0.000000 
0.000000 
0.000000 
0.000000 
0.000000 
0.000000 
0.000000 
0.000000 
0.000000 
0.000000 
0.000000 
0.000000 
0.000000 
0.000000 
0.000000 
0.000000 
0.000000 
0.000000 
0.000000 
0.000000 
0.000000 
0.000000 
0.000000 
0.000000 
0.000000 
0.000000 
0.000000 
0.000000 
0.000000 
0.000000 
0.000000 
0.000000 
0.000000 
0.000000 
0.000000 
0.000000 
0.000000 
0.000000 
0.000000 
0.000000 
0.000000 
0.000000 
0.000000 
0.000000 
0.000000 
0.000000 
0.000001 
0.000001 
0.000001 
0.000001 
0.000001 
0.000001 
0.000001 
0.000001 
0.000001 
0.000001 
0.000001 
0.000001 
0.000001 
0.000002 
0.000002 
0.000002 
0.000002 
0.000002 
0.000002 
0.000003 
0.000003 
0.000003 
0.000003 
0.000003 
0.000004 
0.000004 
0.000004 
0.000005 
0.000005 
0.000005 
0.000006 
0.000006 
0.000007 
0.000007 
0.000008 
0.000008 
0.000009 
0.000009 
0.000010 
0.000011 
0.000012 
0.000012 
0.000013 
0.000014 
0.000015 
0.000016 
0.000017 
0.000019 
0.000020 
0.000021 
0.000023 
0.000024 
0.000026 
0.000027 
0.000029 
0.000031 
0.000033 
0.000035 
0.000037 
0.000040 
0.000042 
0.000045 
0.000047 
0.000050 
0.000053 
0.000057 
0.000060 
0.000064 
0.000068 
0.000071 
0.000076 
0.000080 
0.000085 
0.000090 
0.000095 
0.000100 
0.000105 
0.000111 
0.000117 
0.000124 
0.000131 
0.000138 
0.000145 
0.000153 
0.000161 
0.000169 
0.000178 
0.000187 
0.000196 
0.000206 
0.000216 
0.000227 
0.000238 
0.000250 
0.000262 
0.000275 
0.000288 
0.000301 
0.000315 
0.000330 
0.000345 
0.000360 
0.000377 
0.000393 
0.000411 
0.000428 
0.000447 
0.000466 
0.000486 
0.000506 
0.000527 
0.000549 
0.000571 
0.000594 
0.000618 
0.000642 
0.000668 
0.000693 
0.000720 
0.000747 
0.000775 
0.000804 
0.000833 
0.000863 
0.000894 
0.000926 
0.000958 
0.000991 
0.001025 
0.001060 
0.001095 
0.001131 
0.001168 
0.001206 
0.001244 
0.001283 
0.001323 
0.001363 
0.001404 
0.001446 
0.001488 
0.001532 
0.001575 
0.001620 
0.001665 
0.001710 
0.001757 
0.001803 
0.001851 
0.001898 
0.001947 
0.001996 
0.002045 
0.002095 
0.002145 
0.002195 
0.002246 
0.002297 
0.002349 
0.002401 
0.002453 
0.002505 
0.002557 
0.002610 
0.002662 
0.002715 
0.002768 
0.002820 
0.002873 
0.002926 
0.002978 
0.003031 
0.003083 
0.003135 
0.003187 
0.003238 
0.003289 
0.003340 
0.003390 
0.003440 
0.003489 
0.003538 
0.003586 
0.003634 
0.003681 
0.003727 
0.003773 
0.003818 
0.003862 
0.003905 
0.003947 
0.003989 
0.004029 
0.004069 
0.004107 
0.004144 
0.004181 
0.004216 
0.004250 
0.004283 
0.004314 
0.004345 
0.004374 
0.004402 
0.004428 
0.004453 
0.004477 
0.004500 
0.004521 
0.004540 
0.004559 
0.004575 
0.004591 
0.004604 
0.004617 
0.004628 
0.004637 
0.004645 
0.004651 
0.004655 
0.004658 
0.004660 
0.000000 
0.000000 
0.000000 
0.000000 
0.000000 
0.000000 
0.000000 
0.000000 
0.000000 
0.000000 
0.000000 
0.000000 
0.000000 
0.000000 
0.000000 
0.000000 
0.000000 
0.000000 
0.000000 
0.000000 
0.000000 
0.000000 
0.000000 
0.000000 
0.000000 
0.000000 
0.000000 
0.000000 
0.000000 
0.000000 
0.000000 
0.000000 
0.000000 
0.000000 
0.000000 
0.000000 
0.000000 
0.000000 
0.000000 
0.000000 
0.000000 
0.000000 
0.000000 
0.000000 
0.000000 
0.000000 
0.000000 
0.000000 
0.000000 
0.000000 
0.000000 
0.000000 
0.000000 
0.000000 
0.000000 
0.000000 
0.000000 
0.000000 
0.000000 
0.000000 
0.000000 
0.000000 
0.000000 
0.000000 
0.000000 
0.000000 
0.000000 
0.000000 
0.000000 
0.000000 
0.000000 
0.000000 
0.000000 
0.000000 
0.000000 
0.000000 
0.000001 
0.000001 
0.000001 
0.000001 
0.000001 
0.000001 
0.000001 
0.000001 
0.000001 
0.000001 
0.000001 
0.000001 
0.000001 
0.000002 
0.000002 
0.000002 
0.000002 
0.000002 
0.000002 
0.000002 
0.000003 
0.000003 
0.000003 
0.000003 
0.000004 
0.000004 
0.000004 
0.000004 
0.000005 
0.000005 
0.000006 
0.000006 
0.000007 
0.000007 
0.000008 
0.000008 
0.000009 
0.000009 
0.000010 
0.000011 
0.000012 
0.000012 
0.000013 
0.000014 
0.000015 
0.000016 
0.000017 
0.000019 
0.000020 
0.000021 
0.000023 
0.000024 
0.000026 
0.000028 
0.000029 
0.000031 
0.000033 
0.000036 
0.000038 
0.000040 
0.000043 
0.000046 
0.000049 
0.000052 
0.000055 
0.000058 
0.000062 
0.000066 
0.000070 
0.000074 
0.000078 
0.000083 
0.000088 
0.000093 
0.000098 
0.000104 
0.000110 
0.000116 
0.000122 
0.000129 
0.000136 
0.000144 
0.000152 
0.000160 
0.000169 
0.000178 
0.000187 
0.000197 
0.000207 
0.000218 
0.000229 
0.000240 
0.000253 
0.000265 
0.000278 
0.000292 
0.000306 
0.000321 
0.000336 
0.000352 
0.000369 
0.000386 
0.000404 
0.000422 
0.000441 
0.000461 
0.000481 
0.000503 
0.000525 
0.000547 
0.000571 
0.000595 
0.000620 
0.000645 
0.000672 
0.000699 
0.000727 
0.000756 
0.000786 
0.000817 
0.000848 
0.000881 
0.000914 
0.000948 
0.000983 
0.001019 
0.001056 
0.001094 
0.001133 
0.001172 
0.001213 
0.001254 
0.001296 
0.001339 
0.001383 
0.001428 
0.001474 
0.001521 
0.001569 
0.001617 
0.001666 
0.001716 
0.001767 
0.001819 
0.001872 
0.001925 
0.001979 
0.002034 
0.002090 
0.002146 
0.002203 
0.002261 
0.002319 
0.002378 
0.002438 
0.002498 
0.002559 
0.002620 
0.002681 
0.002743 
0.002806 
0.002868 
0.002931 
0.002995 
0.003058 
0.003122 
0.003186 
0.003250 
0.003314 
0.003379 
0.003443 
0.003507 
0.003571 
0.003635 
0.003699 
0.003763 
0.003826 
0.003889 
0.003951 
0.004014 
0.004075 
0.004136 
0.004197 
0.004257 
0.004317 
0.004375 
0.004433 
0.004490 
0.004547 
0.004602 
0.004657 
0.004710 
0.004763 
0.004814 
0.004864 
0.004914 
0.004962 
0.005008 
0.005054 
0.005098 
0.005141 
0.005182 
0.005222 
0.005260 
0.005297 
0.005333 
0.005367 
0.005399 
0.005429 
0.005458 
0.005486 
0.005511 
0.005535 
0.005557 
0.005578 
0.005596 
0.005613 
0.005628 
0.005641 
0.005652 
0.005662 
0.005669 
0.005675 
0.005679 
0.005680 
0.000000 
0.000000 
0.000000 
0.000000 
0.000000 
0.000000 
0.000000 
0.000000 
0.000000 
0.000000 
0.000000 
0.000000 
0.000000 
0.000000 
0.000000 
0.000000 
0.000000 
0.000000 
0.000000 
0.000000 
0.000000 
0.000000 
0.000000 
0.000000 
0.000000 
0.000000 
0.000000 
0.000000 
0.000000 
0.000000 
0.000000 
0.000000 
0.000000 
0.000000 
0.000000 
0.000000 
0.000000 
0.000000 
0.000000 
0.000000 
0.000000 
0.000000 
0.000000 
0.000000 
0.000000 
0.000000 
0.000000 
0.000000 
0.000000 
0.000000 
0.000000 
0.000000 
0.000000 
0.000000 
0.000000 
0.000000 
0.000000 
0.000000 
0.000000 
0.000000 
0.000000 
0.000000 
0.000000 
0.000000 
0.000000 
0.000000 
0.000000 
0.000000 
0.000000 
0.000000 
0.000000 
0.000000 
0.000000 
0.000000 
0.000001 
0.000001 
0.000001 
0.000001 
0.000001 
0.000001 
0.000001 
0.000001 
0.000001 
0.000001 
0.000001 
0.000001 
0.000001 
0.000002 
0.000002 
0.000002 
0.000002 
0.000002 
0.000002 
0.000002 
0.000003 
0.000003 
0.000003 
0.000003 
0.000004 
0.000004 
0.000004 
0.000005 
0.000005 
0.000005 
0.000006 
0.000006 
0.000007 
0.000007 
0.000008 
0.000008 
0.000009 
0.000010 
0.000010 
0.000011 
0.000012 
0.000013 
0.000014 
0.000015 
0.000016 
0.000017 
0.000018 
0.000019 
0.000021 
0.000022 
0.000024 
0.000025 
0.000027 
0.000029 
0.000031 
0.000033 
0.000035 
0.000038 
0.000040 
0.000043 
0.000045 
0.000048 
0.000051 
0.000055 
0.000058 
0.000062 
0.000066 
0.000070 
0.000074 
0.000078 
0.000083 
0.000088 
0.000093 
0.000099 
0.000105 
0.000111 
0.000117 
0.000124 
0.000131 
0.000139 
0.000146 
0.000155 
0.000163 
0.000172 
0.000181 
0.000191 
0.000202 
0.000212 
0.000223 
0.000235 
0.000247 
0.000260 
0.000274 
0.000287 
0.000302 
0.000317 
0.000333 
0.000349 
0.000366 
0.000383 
0.000402 
0.000421 
0.000440 
0.000461 
0.000482 
0.000504 
0.000527 
0.000551 
0.000575 
0.000600 
0.000626 
0.000653 
0.000681 
0.000710 
0.000740 
0.000771 
0.000802 
0.000835 
0.000868 
0.000903 
0.000939 
0.000975 
0.001013 
0.001051 
0.001091 
0.001132 
0.001173 
0.001216 
0.001260 
0.001305 
0.001351 
0.001398 
0.001446 
0.001496 
0.001546 
0.001597 
0.001650 
0.001703 
0.001758 
0.001814 
0.001870 
0.001928 
0.001987 
0.002046 
0.002107 
0.002169 
0.002231 
0.002295 
0.002359 
0.002424 
0.002491 
0.002558 
0.002625 
0.002694 
0.002763 
0.002833 
0.002904 
0.002976 
0.003048 
0.003120 
0.003193 
0.003267 
0.003341 
0.003416 
0.003491 
0.003566 
0.003641 
0.003717 
0.003793 
0.003869 
0.003945 
0.004022 
0.004098 
0.004174 
0.004250 
0.004326 
0.004402 
0.004477 
0.004552 
0.004627 
0.004701 
0.004775 
0.004848 
0.004920 
0.004992 
0.005064 
0.005134 
0.005204 
0.005272 
0.005340 
0.005407 
0.005472 
0.005537 
0.005601 
0.005663 
0.005724 
0.005783 
0.005842 
0.005898 
0.005954 
0.006008 
0.006060 
0.006110 
0.006159 
0.006207 
0.006252 
0.006296 
0.006338 
0.006378 
0.006416 
0.006453 
0.006487 
0.006519 
0.006550 
0.006578 
0.006604 
0.006628 
0.006650 
0.006670 
0.006688 
0.006703 
0.006716 
0.006727 
0.006736 
0.006743 
0.006748 
0.006750 
0.000000 
0.000000 
0.000000 
0.000000 
0.000000 
0.000000 
0.000000 
0.000000 
0.000000 
0.000000 
0.000000 
0.000000 
0.000000 
0.000000 
0.000000 
0.000000 
0.000000 
0.000000 
0.000000 
0.000000 
0.000000 
0.000000 
0.000000 
0.000000 
0.000000 
0.000000 
0.000000 
0.000000 
0.000000 
0.000000 
0.000000 
0.000000 
0.000000 
0.000000 
0.000000 
0.000000 
0.000000 
0.000000 
0.000000 
0.000000 
0.000000 
0.000000 
0.000000 
0.000000 
0.000000 
0.000000 
0.000000 
0.000000 
0.000000 
0.000000 
0.000000 
0.000000 
0.000000 
0.000000 
0.000000 
0.000000 
0.000000 
0.000000 
0.000000 
0.000000 
0.000000 
0.000000 
0.000000 
0.000000 
0.000000 
0.000000 
0.000000 
0.000000 
0.000000 
0.000000 
0.000000 
0.000000 
0.000001 
0.000001 
0.000001 
0.000001 
0.000001 
0.000001 
0.000001 
0.000001 
0.000001 
0.000001 
0.000001 
0.000001 
0.000001 
0.000002 
0.000002 
0.000002 
0.000002 
0.000002 
0.000002 
0.000002 
0.000003 
0.000003 
0.000003 
0.000003 
0.000004 
0.000004 
0.000004 
0.000005 
0.000005 
0.000005 
0.000006 
0.000006 
0.000007 
0.000007 
0.000008 
0.000009 
0.000009 
0.000010 
0.000011 
0.000011 
0.000012 
0.000013 
0.000014 
0.000015 
0.000016 
0.000017 
0.000019 
0.000020 
0.000021 
0.000023 
0.000024 
0.000026 
0.000028 
0.000030 
0.000032 
0.000034 
0.000036 
0.000039 
0.000041 
0.000044 
0.000047 
0.000050 
0.000053 
0.000057 
0.000060 
0.000064 
0.000068 
0.000073 
0.000077 
0.000082 
0.000087 
0.000092 
0.000098 
0.000104 
0.000110 
0.000116 
0.000123 
0.000130 
0.000138 
0.000146 
0.000154 
0.000163 
0.000172 
0.000182 
0.000192 
0.000202 
0.000213 
0.000225 
0.000237 
0.000249 
0.000263 
0.000276 
0.000291 
0.000306 
0.000321 
0.000338 
0.000354 
0.000372 
0.000391 
0.000410 
0.000430 
0.000450 
0.000472 
0.000494 
0.000517 
0.000541 
0.000566 
0.000592 
0.000619 
0.000646 
0.000675 
0.000705 
0.000735 
0.000767 
0.000800 
0.000833 
0.000868 
0.000904 
0.000941 
0.000979 
0.001019 
0.001059 
0.001101 
0.001144 
0.001188 
0.001233 
0.001279 
0.001327 
0.001376 
0.001426 
0.001477 
0.001530 
0.001584 
0.001639 
0.001695 
0.001753 
0.001812 
0.001872 
0.001933 
0.001996 
0.002060 
0.002125 
0.002191 
0.002259 
0.002327 
0.002397 
0.002468 
0.002540 
0.002613 
0.002687 
0.002762 
0.002839 
0.002916 
0.002994 
0.003073 
0.003153 
0.003234 
0.003316 
0.003399 
0.003482 
0.003566 
0.003651 
0.003736 
0.003822 
0.003909 
0.003995 
0.004083 
0.004171 
0.004259 
0.004347 
0.004435 
0.004524 
0.004613 
0.004702 
0.004791 
0.004879 
0.004968 
0.005056 
0.005145 
0.005232 
0.005320 
0.005407 
0.005493 
0.005579 
0.005664 
0.005749 
0.005833 
0.005915 
0.005997 
0.006078 
0.006158 
0.006237 
0.006315 
0.006391 
0.006466 
0.006540 
0.006613 
0.006683 
0.006753 
0.006821 
0.006887 
0.006951 
0.007014 
0.007074 
0.007133 
0.007190 
0.007245 
0.007298 
0.007349 
0.007398 
0.007444 
0.007489 
0.007531 
0.007571 
0.007608 
0.007644 
0.007677 
0.007707 
0.007735 
0.007761 
0.007784 
0.007804 
0.007822 
0.007838 
0.007850 
0.007861 
0.007869 
0.007874 
0.007876 
0.000000 
0.000000 
0.000000 
0.000000 
0.000000 
0.000000 
0.000000 
0.000000 
0.000000 
0.000000 
0.000000 
0.000000 
0.000000 
0.000000 
0.000000 
0.000000 
0.000000 
0.000000 
0.000000 
0.000000 
0.000000 
0.000000 
0.000000 
0.000000 
0.000000 
0.000000 