# vtk DataFile Version 3.0
results.vtk
ASCII
DATASET RECTILINEAR_GRID
DIMENSIONS 301 301 1
X_COORDINATES 301 double
0.000000 0.003333 0.006667 0.010000 0.013333 0.016667 0.020000 0.023333 0.026667 0.030000 0.033333 0.036667 0.040000 0.043333 0.046667 0.050000 0.053333 0.056667 0.060000 0.063333 0.066667 0.070000 0.073333 0.076667 0.080000 0.083333 0.086667 0.090000 0.093333 0.096667 0.100000 0.103333 0.106667 0.110000 0.113333 0.116667 0.120000 0.123333 0.126667 0.130000 0.133333 0.136667 0.140000 0.143333 0.146667 0.150000 0.153333 0.156667 0.160000 0.163333 0.166667 0.170000 0.173333 0.176667 0.180000 0.183333 0.186667 0.190000 0.193333 0.196667 0.200000 0.203333 0.206667 0.210000 0.213333 0.216667 0.220000 0.223333 0.226667 0.230000 0.233333 0.236667 0.240000 0.243333 0.246667 0.250000 0.253333 0.256667 0.260000 0.263333 0.266667 0.270000 0.273333 0.276667 0.280000 0.283333 0.286667 0.290000 0.293333 0.296667 0.300000 0.303333 0.306667 0.310000 0.313333 0.316667 0.320000 0.323333 0.326667 0.330000 0.333333 0.336667 0.340000 0.343333 0.346667 0.350000 0.353333 0.356667 0.360000 0.363333 0.366667 0.370000 0.373333 0.376667 0.380000 0.383333 0.386667 0.390000 0.393333 0.396667 0.400000 0.403333 0.406667 0.410000 0.413333 0.416667 0.420000 0.423333 0.426667 0.430000 0.433333 0.436667 0.440000 0.443333 0.446667 0.450000 0.453333 0.456667 0.460000 0.463333 0.466667 0.470000 0.473333 0.476667 0.480000 0.483333 0.486667 0.490000 0.493333 0.496667 0.500000 0.503333 0.506667 0.510000 0.513333 0.516667 0.520000 0.523333 0.526667 0.530000 0.533333 0.536667 0.540000 0.543333 0.546667 0.550000 0.553333 0.556667 0.560000 0.563333 0.566667 0.570000 0.573333 0.576667 0.580000 0.583333 0.586667 0.590000 0.593333 0.596667 0.600000 0.603333 0.606667 0.610000 0.613333 0.616667 0.620000 0.623333 0.626667 0.630000 0.633333 0.636667 0.640000 0.643333 0.646667 0.650000 0.653333 0.656667 0.660000 0.663333 0.666667 0.670000 0.673333 0.676667 0.680000 0.683333 0.686667 0.690000 0.693333 0.696667 0.700000 0.703333 0.706667 0.710000 0.713333 0.716667 0.720000 0.723333 0.726667 0.730000 0.733333 0.736667 0.740000 0.743333 0.746667 0.750000 0.753333 0.756667 0.760000 0.763333 0.766667 0.770000 0.773333 0.776667 0.780000 0.783333 0.786667 0.790000 0.793333 0.796667 0.800000 0.803333 0.806667 0.810000 0.813333 0.816667 0.820000 0.823333 0.826667 0.830000 0.833333 0.836667 0.840000 0.843333 0.846667 0.850000 0.853333 0.856667 0.860000 0.863333 0.866667 0.870000 0.873333 0.876667 0.880000 0.883333 0.886667 0.890000 0.893333 0.896667 0.900000 0.903333 0.906667 0.910000 0.913333 0.916667 0.920000 0.923333 0.926667 0.930000 0.933333 0.936667 0.940000 0.943333 0.946667 0.950000 0.953333 0.956667 0.960000 0.963333 0.966667 0.970000 0.973333 0.976667 0.980000 0.983333 0.986667 0.990000 0.993333 0.996667 1.000000 
Y_COORDINATES 301 double
0.000000 0.003333 0.006667 0.010000 0.013333 0.016667 0.020000 0.023333 0.026667 0.030000 0.033333 0.036667 0.040000 0.043333 0.046667 0.050000 0.053333 0.056667 0.060000 0.063333 0.066667 0.070000 0.073333 0.076667 0.080000 0.083333 0.086667 0.090000 0.093333 0.096667 0.100000 0.103333 0.106667 0.110000 0.113333 0.116667 0.120000 0.123333 0.126667 0.130000 0.133333 0.136667 0.140000 0.143333 0.146667 0.150000 0.153333 0.156667 0.160000 0.163333 0.166667 0.170000 0.173333 0.176667 0.180000 0.183333 0.186667 0.190000 0.193333 0.196667 0.200000 0.203333 0.206667 0.210000 0.213333 0.216667 0.220000 0.223333 0.226667 0.230000 0.233333 0.236667 0.240000 0.243333 0.246667 0.250000 0.253333 0.256667 0.260000 0.263333 0.266667 0.270000 0.273333 0.276667 0.280000 0.283333 0.286667 0.290000 0.293333 0.296667 0.300000 0.303333 0.306667 0.310000 0.313333 0.316667 0.320000 0.323333 0.326667 0.330000 0.333333 0.336667 0.340000 0.343333 0.346667 0.350000 0.353333 0.356667 0.360000 0.363333 0.366667 0.370000 0.373333 0.376667 0.380000 0.383333 0.386667 0.390000 0.393333 0.396667 0.400000 0.403333 0.406667 0.410000 0.413333 0.416667 0.420000 0.423333 0.426667 0.430000 0.433333 0.436667 0.440000 0.443333 0.446667 0.450000 0.453333 0.456667 0.460000 0.463333 0.466667 0.470000 0.473333 0.476667 0.480000 0.483333 0.486667 0.490000 0.493333 0.496667 0.500000 0.503333 0.506667 0.510000 0.513333 0.516667 0.520000 0.523333 0.526667 0.530000 0.533333 0.536667 0.540000 0.543333 0.546667 0.550000 0.553333 0.556667 0.560000 0.563333 0.566667 0.570000 0.573333 0.576667 0.580000 0.583333 0.586667 0.590000 0.593333 0.596667 0.600000 0.603333 0.606667 0.610000 0.613333 0.616667 0.620000 0.623333 0.626667 0.630000 0.633333 0.636667 0.640000 0.643333 0.646667 0.650000 0.653333 0.656667 0.660000 0.663333 0.666667 0.670000 0.673333 0.676667 0.680000 0.683333 0.686667 0.690000 0.693333 0.696667 0.700000 0.703333 0.706667 0.710000 0.713333 0.716667 0.720000 0.723333 0.726667 0.730000 0.733333 0.736667 0.740000 0.743333 0.746667 0.750000 0.753333 0.756667 0.760000 0.763333 0.766667 0.770000 0.773333 0.776667 0.780000 0.783333 0.786667 0.790000 0.793333 0.796667 0.800000 0.803333 0.806667 0.810000 0.813333 0.816667 0.820000 0.823333 0.826667 0.830000 0.833333 0.836667 0.840000 0.843333 0.846667 0.850000 0.853333 0.856667 0.860000 0.863333 0.866667 0.870000 0.873333 0.876667 0.880000 0.883333 0.886667 0.890000 0.893333 0.896667 0.900000 0.903333 0.906667 0.910000 0.913333 0.916667 0.920000 0.923333 0.926667 0.930000 0.933333 0.936667 0.940000 0.943333 0.946667 0.950000 0.953333 0.956667 0.960000 0.963333 0.966667 0.970000 0.973333 0.976667 0.980000 0.983333 0.986667 0.990000 0.993333 0.996667 1.000000 
Z_COORDINATES 1 double
0
POINT_DATA 90601 
FIELD FieldData 1 
Concentração 1 90601 double 
0.000000 
0.000000 
0.000000 
0.000000 
0.000000 
0.000000 
0.000000 
0.000000 
0.000000 
0.000000 
0.000000 
0.000000 
0.000000 
0.000000 
0.000000 
0.000000 
0.000000 
0.000000 
0.000000 
0.000000 
0.000000 
0.000000 
0.000000 
0.000000 
0.000000 
0.000000 
0.000000 
0.000000 
0.000000 
0.000000 
0.000000 
0.000000 
0.000000 
0.000000 
0.000000 
0.000000 
0.000000 
0.000000 
0.000000 
0.000000 
0.000000 
0.000000 
0.000000 
0.000000 
0.000000 
0.000000 
0.000000 
0.000000 
0.000000 
0.000000 
0.000000 
0.000000 
0.000000 
0.000000 
0.000000 
0.000000 
0.000000 
0.000000 
0.000000 
0.000000 
0.000000 
0.000000 
0.000000 
0.000000 
0.000000 
0.000000 
0.000000 
0.000001 
0.000001 
0.000001 
0.000001 
0.000001 
0.000001 
0.000001 
0.000001 
0.000001 
0.000001 
0.000001 
0.000001 
0.000001 
0.000002 
0.000002 
0.000002 
0.000002 
0.000002 
0.000002 
0.000002 
0.000003 
0.000003 
0.000003 
0.000003 
0.000004 
0.000004 
0.000004 
0.000005 
0.000005 
0.000005 
0.000006 
0.000006 
0.000007 
0.000007 
0.000008 
0.000008 
0.000009 
0.000009 
0.000010 
0.000011 
0.000011 
0.000012 
0.000013 
0.000014 
0.000015 
0.000016 
0.000017 
0.000018 
0.000020 
0.000021 
0.000022 
0.000024 
0.000025 
0.000027 
0.000029 
0.000031 
0.000033 
0.000035 
0.000037 
0.000039 
0.000042 
0.000044 
0.000047 
0.000050 
0.000053 
0.000056 
0.000060 
0.000063 
0.000067 
0.000071 
0.000075 
0.000079 
0.000084 
0.000089 
0.000094 
0.000099 
0.000105 
0.000110 
0.000116 
0.000123 
0.000129 
0.000136 
0.000144 
0.000151 
0.000159 
0.000167 
0.000176 
0.000185 
0.000194 
0.000204 
0.000214 
0.000225 
0.000236 
0.000248 
0.000259 
0.000272 
0.000285 
0.000298 
0.000312 
0.000326 
0.000341 
0.000356 
0.000372 
0.000389 
0.000406 
0.000424 
0.000442 
0.000461 
0.000480 
0.000500 
0.000521 
0.000542 
0.000564 
0.000587 
0.000610 
0.000634 
0.000658 
0.000683 
0.000709 
0.000736 
0.000763 
0.000791 
0.000820 
0.000850 
0.000880 
0.000910 
0.000942 
0.000974 
0.001007 
0.001041 
0.001075 
0.001110 
0.001146 
0.001183 
0.001220 
0.001258 
0.001296 
0.001335 
0.001375 
0.001416 
0.001457 
0.001499 
0.001541 
0.001584 
0.001627 
0.001672 
0.001716 
0.001762 
0.001807 
0.001854 
0.001900 
0.001948 
0.001995 
0.002044 
0.002092 
0.002141 
0.002191 
0.002240 
0.002290 
0.002341 
0.002391 
0.002442 
0.002493 
0.002544 
0.002596 
0.002647 
0.002699 
0.002751 
0.002803 
0.002855 
0.002907 
0.002958 
0.003010 
0.003062 
0.003114 
0.003165 
0.003216 
0.003268 
0.003318 
0.003369 
0.003419 
0.003469 
0.003519 
0.003568 
0.003617 
0.003666 
0.003714 
0.003761 
0.003808 
0.003854 
0.003900 
0.003945 
0.003990 
0.004034 
0.004077 
0.004120 
0.004161 
0.004202 
0.004243 
0.004282 
0.004320 
0.004358 
0.004395 
0.004431 
0.004466 
0.004500 
0.004533 
0.004565 
0.004596 
0.004625 
0.004654 
0.004682 
0.004709 
0.004735 
0.004759 
0.004782 
0.004805 
0.004826 
0.004846 
0.004864 
0.004882 
0.004898 
0.004913 
0.004927 
0.004940 
0.004951 
0.004961 
0.004970 
0.004978 
0.004984 
0.004989 
0.004993 
0.004996 
0.004997 
0.000000 
0.000000 
0.000000 
0.000000 
0.000000 
0.000000 
0.000000 
0.000000 
0.000000 
0.000000 
0.000000 
0.000000 
0.000000 
0.000000 
0.000000 
0.000000 
0.000000 
0.000000 
0.000000 
0.000000 
0.000000 
0.000000 
0.000000 
0.000000 
0.000000 
0.000000 
0.000000 
0.000000 
0.000000 
0.000000 
0.000000 
0.000000 
0.000000 
0.000000 
0.000000 
0.000000 
0.000000 
0.000000 
0.000000 
0.000000 
0.000000 
0.000000 
0.000000 
0.000000 
0.000000 
0.000000 
0.000000 
0.000000 
0.000000 
0.000000 
0.000000 
0.000000 
0.000000 
0.000000 
0.000000 
0.000000 
0.000000 
0.000000 
0.000001 
0.000001 
0.000001 
0.000001 
0.000001 
0.000001 
0.000001 
0.000001 
0.000001 
0.000001 
0.000001 
0.000001 
0.000001 
0.000002 
0.000002 
0.000002 
0.000002 
0.000002 
0.000002 
0.000002 
0.000003 
0.000003 
0.000003 
0.000003 
0.000004 
0.000004 
0.000004 
0.000005 
0.000005 
0.000005 
0.000006 
0.000006 
0.000007 
0.000007 
0.000008 
0.000008 
0.000009 
0.000010 
0.000011 
0.000011 
0.000012 
0.000013 
0.000014 
0.000015 
0.000016 
0.000017 
0.000019 
0.000020 
0.000022 
0.000023 
0.000025 
0.000026 
0.000028 
0.000030 
0.000032 
0.000035 
0.000037 
0.000039 
0.000042 
0.000045 
0.000048 
0.000051 
0.000054 
0.000058 
0.000062 
0.000066 
0.000070 
0.000074 
0.000079 
0.000084 
0.000089 
0.000095 
0.000100 
0.000107 
0.000113 
0.000120 
0.000127 
0.000134 
0.000142 
0.000151 
0.000159 
0.000169 
0.000178 
0.000188 
0.000199 
0.000210 
0.000222 
0.000234 
0.000247 
0.000260 
0.000274 
0.000289 
0.000304 
0.000320 
0.000336 
0.000354 
0.000372 
0.000391 
0.000410 
0.000431 
0.000452 
0.000474 
0.000497 
0.000521 
0.000546 
0.000572 
0.000599 
0.000626 
0.000655 
0.000685 
0.000716 
0.000748 
0.000781 
0.000815 
0.000851 
0.000887 
0.000925 
0.000964 
0.001004 
0.001046 
0.001089 
0.001133 
0.001178 
0.001224 
0.001272 
0.001322 
0.001372 
0.001424 
0.001478 
0.001533 
0.001589 
0.001647 
0.001706 
0.001766 
0.001828 
0.001891 
0.001956 
0.002022 
0.002089 
0.002158 
0.002229 
0.002300 
0.002374 
0.002448 
0.002524 
0.002601 
0.002680 
0.002760 
0.002841 
0.002923 
0.003007 
0.003092 
0.003178 
0.003265 
0.003354 
0.003443 
0.003534 
0.003626 
0.003719 
0.003812 
0.003907 
0.004003 
0.004099 
0.004196 
0.004294 
0.004393 
0.004493 
0.004593 
0.004694 
0.004795 
0.004897 
0.004999 
0.005102 
0.005205 
0.005308 
0.005412 
0.005515 
0.005619 
0.005723 
0.005827 
0.005931 
0.006034 
0.006138 
0.006241 
0.006344 
0.006447 
0.006549 
0.006651 
0.006752 
0.006853 
0.006953 
0.007052 
0.007151 
0.007249 
0.007346 
0.007442 
0.007537 
0.007630 
0.007723 
0.007815 
0.007905 
0.007994 
0.008082 
0.008168 
0.008253 
0.008337 
0.008419 
0.008499 
0.008578 
0.008655 
0.008730 
0.008804 
0.008875 
0.008945 
0.009013 
0.009079 
0.009143 
0.009205 
0.009265 
0.009322 
0.009378 
0.009431 
0.009483 
0.009532 
0.009578 
0.009623 
0.009665 
0.009705 
0.009742 
0.009777 
0.009810 
0.009840 
0.009868 
0.009893 
0.009916 
0.009936 
0.009954 
0.009969 
0.009982 
0.009992 
0.010000 
0.010005 
0.010007 
0.000000 
0.000000 
0.000000 
0.000000 
0.000000 
0.000000 
0.000000 
0.000000 
0.000000 
0.000000 
0.000000 
0.000000 
0.000000 
0.000000 
0.000000 
0.000000 
0.000000 
0.000000 
0.000000 
0.000000 
0.000000 
0.000000 
0.000000 
0.000000 
0.000000 
0.000000 
0.000000 
0.000000 
0.000000 
0.000000 
0.000000 
0.000000 
0.000000 
0.000000 
0.000000 
0.000000 
0.000000 
0.000000 
0.000000 
0.000000 
0.000000 
0.000000 
0.000000 
0.000000 
0.000000 
0.000000 
0.000000 
0.000000 
0.000000 
0.000000 
0.000000 
0.000000 
0.000000 
0.000000 
0.000001 
0.000001 
0.000001 
0.000001 
0.000001 
0.000001 
0.000001 
0.000001 
0.000001 
0.000001 
0.000001 
0.000001 
0.000002 
0.000002 
0.000002 
0.000002 
0.000002 
0.000002 
0.000002 
0.000003 
0.000003 
0.000003 
0.000003 
0.000004 
0.000004 
0.000004 
0.000005 
0.000005 
0.000006 
0.000006 
0.000006 
0.000007 
0.000008 
0.000008 
0.000009 
0.000010 
0.000010 
0.000011 
0.000012 
0.000013 
0.000014 
0.000015 
0.000016 
0.000017 
0.000019 
0.000020 
0.000021 
0.000023 
0.000025 
0.000026 
0.000028 
0.000030 
0.000033 
0.000035 
0.000037 
0.000040 
0.000043 
0.000046 
0.000049 
0.000052 
0.000056 
0.000060 
0.000064 
0.000068 
0.000072 
0.000077 
0.000082 
0.000088 
0.000093 
0.000099 
0.000106 
0.000112 
0.000119 
0.000127 
0.000135 
0.000143 
0.000152 
0.000161 
0.000171 
0.000181 
0.000192 
0.000203 
0.000215 
0.000228 
0.000241 
0.000255 
0.000270 
0.000285 
0.000301 
0.000318 
0.000335 
0.000354 
0.000373 
0.000393 
0.000414 
0.000436 
0.000459 
0.000484 
0.000509 
0.000535 
0.000562 
0.000591 
0.000620 
0.000651 
0.000683 
0.000717 
0.000752 
0.000788 
0.000825 
0.000864 
0.000905 
0.000947 
0.000990 
0.001035 
0.001082 
0.001130 
0.001180 
0.001232 
0.001285 
0.001341 
0.001398 
0.001456 
0.001517 
0.001580 
0.001644 
0.001710 
0.001779 
0.001849 
0.001922 
0.001996 
0.002072 
0.002151 
0.002231 
0.002314 
0.002399 
0.002486 
0.002575 
0.002666 
0.002759 
0.002854 
0.002952 
0.003051 
0.003153 
0.003257 
0.003363 
0.003471 
0.003581 
0.003693 
0.003808 
0.003924 
0.004042 
0.004163 
0.004285 
0.004409 
0.004535 
0.004663 
0.004792 
0.004924 
0.005057 
0.005192 
0.005328 
0.005466 
0.005606 
0.005747 
0.005889 
0.006033 
0.006178 
0.006325 
0.006472 
0.006621 
0.006770 
0.006921 
0.007073 
0.007225 
0.007378 
0.007532 
0.007686 
0.007841 
0.007996 
0.008151 
0.008307 
0.008463 
0.008619 
0.008775 
0.008931 
0.009087 
0.009242 
0.009397 
0.009552 
0.009706 
0.009860 
0.010013 
0.010165 
0.010316 
0.010466 
0.010615 
0.010763 
0.010910 
0.011055 
0.011199 
0.011341 
0.011482 
0.011621 
0.011759 
0.011894 
0.012028 
0.012160 
0.012289 
0.012416 
0.012542 
0.012664 
0.012785 
0.012903 
0.013018 
0.013131 
0.013241 
0.013349 
0.013453 
0.013555 
0.013654 
0.013750 
0.013843 
0.013932 
0.014019 
0.014102 
0.014182 
0.014259 
0.014332 
0.014402 
0.014469 
0.014532 
0.014592 
0.014648 
0.014700 
0.014749 
0.014794 
0.014836 
0.014874 
0.014908 
0.014938 
0.014965 
0.014988 
0.015007 
0.015022 
0.015033 
0.015041 
0.015045 
0.000000 
0.000000 
0.000000 
0.000000 
0.000000 
0.000000 
0.000000 
0.000000 
0.000000 
0.000000 
0.000000 
0.000000 
0.000000 
0.000000 
0.000000 
0.000000 
0.000000 
0.000000 
0.000000 
0.000000 
0.000000 
0.000000 
0.000000 
0.000000 
0.000000 
0.000000 
0.000000 
0.000000 
0.000000 
0.000000 
0.000000 
0.000000 
0.000000 
0.000000 
0.000000 
0.000000 
0.000000 
0.000000 
0.000000 
0.000000 
0.000000 
0.000000 
0.000000 
0.000000 
0.000000 
0.000000 
0.000000 
0.000000 
0.000000 
0.000000 
0.000001 
0.000001 
0.000001 
0.000001 
0.000001 
0.000001 
0.000001 
0.000001 
0.000001 
0.000001 
0.000001 
0.000001 
0.000001 
0.000002 
0.000002 
0.000002 
0.000002 
0.000002 
0.000002 
0.000003 
0.000003 
0.000003 
0.000003 
0.000004 
0.000004 
0.000004 
0.000005 
0.000005 
0.000005 
0.000006 
0.000006 
0.000007 
0.000007 
0.000008 
0.000009 
0.000009 
0.000010 
0.000011 
0.000012 
0.000013 
0.000014 
0.000015 
0.000016 
0.000017 
0.000019 
0.000020 
0.000022 
0.000023 
0.000025 
0.000027 
0.000029 
0.000031 
0.000033 
0.000036 
0.000038 
0.000041 
0.000044 
0.000047 
0.000050 
0.000054 
0.000058 
0.000062 
0.000066 
0.000070 
0.000075 
0.000080 
0.000086 
0.000092 
0.000098 
0.000104 
0.000111 
0.000118 
0.000126 
0.000134 
0.000142 
0.000151 
0.000161 
0.000171 
0.000182 
0.000193 
0.000205 
0.000217 
0.000231 
0.000244 
0.000259 
0.000274 
0.000290 
0.000307 
0.000325 
0.000344 
0.000364 
0.000384 
0.000406 
0.000428 
0.000452 
0.000477 
0.000503 
0.000530 
0.000559 
0.000588 
0.000619 
0.000652 
0.000686 
0.000721 
0.000758 
0.000796 
0.000836 
0.000878 
0.000921 
0.000966 
0.001013 
0.001062 
0.001112 
0.001164 
0.001219 
0.001275 
0.001334 
0.001395 
0.001457 
0.001522 
0.001590 
0.001659 
0.001731 
0.001805 
0.001882 
0.001961 
0.002042 
0.002127 
0.002213 
0.002302 
0.002394 
0.002489 
0.002586 
0.002686 
0.002789 
0.002894 
0.003002 
0.003113 
0.003227 
0.003344 
0.003463 
0.003586 
0.003711 
0.003839 
0.003970 
0.004103 
0.004240 
0.004379 
0.004522 
0.004667 
0.004814 
0.004965 
0.005118 
0.005274 
0.005433 
0.005594 
0.005758 
0.005924 
0.006093 
0.006264 
0.006438 
0.006614 
0.006792 
0.006973 
0.007156 
0.007341 
0.007527 
0.007716 
0.007907 
0.008099 
0.008294 
0.008490 
0.008687 
0.008886 
0.009086 
0.009287 
0.009490 
0.009694 
0.009898 
0.010104 
0.010310 
0.010517 
0.010724 
0.010932 
0.011140 
0.011349 
0.011557 
0.011766 
0.011974 
0.012182 
0.012389 
0.012597 
0.012803 
0.013009 
0.013214 
0.013418 
0.013621 
0.013823 
0.014023 
0.014222 
0.014419 
0.014615 
0.014809 
0.015001 
0.015191 
0.015379 
0.015564 
0.015747 
0.015928 
0.016106 
0.016282 
0.016454 
0.016624 
0.016791 
0.016955 
0.017115 
0.017272 
0.017426 
0.017576 
0.017723 
0.017866 
0.018006 
0.018141 
0.018273 
0.018401 
0.018524 
0.018644 
0.018759 
0.018870 
0.018976 
0.019079 
0.019176 
0.019270 
0.019358 
0.019442 
0.019522 
0.019596 
0.019666 
0.019731 
0.019791 
0.019846 
0.019897 
0.019942 
0.019983 
0.020018 
0.020048 
0.020074 
0.020094 
0.020109 
0.020120 
0.020125 
0.000000 
0.000000 
0.000000 
0.000000 
0.000000 
0.000000 
0.000000 
0.000000 
0.000000 
0.000000 
0.000000 
0.000000 
0.000000 
0.000000 
0.000000 
0.000000 
0.000000 
0.000000 
0.000000 
0.000000 
0.000000 
0.000000 
0.000000 
0.000000 
0.000000 
0.000000 
0.000000 
0.000000 
0.000000 
0.000000 
0.000000 
0.000000 
0.000000 
0.000000 
0.000000 
0.000000 
0.000000 
0.000000 
0.000000 
0.000000 
0.000000 
0.000000 
0.000000 
0.000000 
0.000000 
0.000000 
0.000000 
0.000000 
0.000001 
0.000001 
0.000001 
0.000001 
0.000001 
0.000001 
0.000001 
0.000001 
0.000001 
0.000001 
0.000001 
0.000001 
0.000002 
0.000002 
0.000002 
0.000002 
0.000002 
0.000002 
0.000003 
0.000003 
0.000003 
0.000003 
0.000004 
0.000004 
0.000004 
0.000005 
0.000005 
0.000005 
0.000006 
0.000006 
0.000007 
0.000008 
0.000008 
0.000009 
0.000010 
0.000010 
0.000011 
0.000012 
0.000013 
0.000014 
0.000015 
0.000016 
0.000018 
0.000019 
0.000020 
0.000022 
0.000024 
0.000025 
0.000027 
0.000029 
0.000032 
0.000034 
0.000037 
0.000039 
0.000042 
0.000045 
0.000049 
0.000052 
0.000056 
0.000060 
0.000064 
0.000068 
0.000073 
0.000078 
0.000084 
0.000089 
0.000096 
0.000102 
0.000109 
0.000116 
0.000124 
0.000132 
0.000141 
0.000150 
0.000160 
0.000170 
0.000181 
0.000192 
0.000204 
0.000217 
0.000231 
0.000245 
0.000260 
0.000276 
0.000292 
0.000310 
0.000328 
0.000348 
0.000368 
0.000390 
0.000412 
0.000436 
0.000461 
0.000487 
0.000515 
0.000543 
0.000573 
0.000605 
0.000638 
0.000672 
0.000708 
0.000746 
0.000785 
0.000826 
0.000869 
0.000914 
0.000960 
0.001009 
0.001060 
0.001112 
0.001167 
0.001224 
0.001283 
0.001345 
0.001409 
0.001475 
0.001544 
0.001615 
0.001689 
0.001766 
0.001845 
0.001928 
0.002013 
0.002100 
0.002191 
0.002285 
0.002382 
0.002482 
0.002585 
0.002691 
0.002801 
0.002913 
0.003029 
0.003149 
0.003272 
0.003398 
0.003527 
0.003660 
0.003797 
0.003937 
0.004081 
0.004228 
0.004379 
0.004533 
0.004691 
0.004852 
0.005017 
0.005186 
0.005358 
0.005533 
0.005712 
0.005895 
0.006081 
0.006271 
0.006464 
0.006660 
0.006860 
0.007063 
0.007269 
0.007478 
0.007691 
0.007906 
0.008125 
0.008346 
0.008570 
0.008797 
0.009027 
0.009260 
0.009494 
0.009732 
0.009971 
0.010213 
0.010457 
0.010703 
0.010951 
0.011201 
0.011452 
0.011705 
0.011959 
0.012215 
0.012471 
0.012729 
0.012988 
0.013247 
0.013507 
0.013768 
0.014029 
0.014290 
0.014551 
0.014813 
0.015074 
0.015334 
0.015594 
0.015854 
0.016112 
0.016370 
0.016627 
0.016882 
0.017136 
0.017389 
0.017639 
0.017888 
0.018135 
0.018380 
0.018622 
0.018863 
0.019100 
0.019335 
0.019567 
0.019796 
0.020022 
0.020245 
0.020464 
0.020680 
0.020892 
0.021100 
0.021305 
0.021505 
0.021702 
0.021894 
0.022082 
0.022265 
0.022444 
0.022618 
0.022787 
0.022951 
0.023111 
0.023265 
0.023414 
0.023558 
0.023696 
0.023829 
0.023957 
0.024079 
0.024195 
0.024306 
0.024411 
0.024510 
0.024603 
0.024690 
0.024771 
0.024846 
0.024915 
0.024978 
0.025034 
0.025085 
0.025129 
0.025167 
0.025199 
0.025224 
0.025243 
0.025256 
0.025262 
0.000000 
0.000000 
0.000000 
0.000000 
0.000000 
0.000000 
0.000000 
0.000000 
0.000000 
0.000000 
0.000000 
0.000000 
0.000000 
0.000000 
0.000000 
0.000000 
0.000000 
0.000000 
0.000000 
0.000000 
0.000000 
0.000000 
0.000000 
0.000000 
0.000000 
0.000000 
0.000000 
0.000000 
0.000000 
0.000000 
0.000000 
0.000000 
0.000000 
0.000000 
0.000000 
0.000000 
0.000000 
0.000000 
0.000000 
0.000000 
0.000000 
0.000000 
0.000000 
0.000000 
0.000000 
0.000000 
0.000001 
0.000001 
0.000001 
0.000001 
0.000001 
0.000001 
0.000001 
0.000001 
0.000001 
0.000001 
0.000001 
0.000001 
0.000002 
0.000002 
0.000002 
0.000002 
0.000002 
0.000002 
0.000003 
0.000003 
0.000003 
0.000003 
0.000004 
0.000004 
0.000004 
0.000005 
0.000005 
0.000006 
0.000006 
0.000007 
0.000007 
0.000008 
0.000008 
0.000009 
0.000010 
0.000011 
0.000012 
0.000013 
0.000014 
0.000015 
0.000016 
0.000017 
0.000018 
0.000020 
0.000022 
0.000023 
0.000025 
0.000027 
0.000029 
0.000031 
0.000034 
0.000036 
0.000039 
0.000042 
0.000045 
0.000048 
0.000052 
0.000055 
0.000059 
0.000064 
0.000068 
0.000073 
0.000078 
0.000084 
0.000089 
0.000096 
0.000102 
0.000109 
0.000117 
0.000125 
0.000133 
0.000142 
0.000151 
0.000161 
0.000172 
0.000183 
0.000195 
0.000208 
0.000221 
0.000235 
0.000250 
0.000265 
0.000282 
0.000299 
0.000318 
0.000337 
0.000357 
0.000379 
0.000401 
0.000425 
0.000450 
0.000476 
0.000504 
0.000533 
0.000563 
0.000595 
0.000628 
0.000663 
0.000700 
0.000738 
0.000779 
0.000821 
0.000864 
0.000910 
0.000958 
0.001008 
0.001061 
0.001115 
0.001172 
0.001231 
0.001293 
0.001357 
0.001424 
0.001493 
0.001565 
0.001640 
0.001718 
0.001799 
0.001883 
0.001970 
0.002060 
0.002153 
0.002250 
0.002349 
0.002453 
0.002560 
0.002670 
0.002784 
0.002902 
0.003024 
0.003149 
0.003278 
0.003411 
0.003548 
0.003689 
0.003834 
0.003983 
0.004136 
0.004294 
0.004455 
0.004621 
0.004791 
0.004965 
0.005144 
0.005327 
0.005514 
0.005705 
0.005901 
0.006101 
0.006305 
0.006514 
0.006727 
0.006944 
0.007165 
0.007390 
0.007620 
0.007854 
0.008091 
0.008333 
0.008579 
0.008828 
0.009081 
0.009338 
0.009599 
0.009863 
0.010131 
0.010402 
0.010677 
0.010954 
0.011235 
0.011519 
0.011805 
0.012095 
0.012387 
0.012681 
0.012978 
0.013277 
0.013578 
0.013881 
0.014186 
0.014493 
0.014801 
0.015110 
0.015421 
0.015733 
0.016046 
0.016359 
0.016673 
0.016987 
0.017302 
0.017616 
0.017931 
0.018245 
0.018558 
0.018871 
0.019183 
0.019495 
0.019804 
0.020113 
0.020420 
0.020725 
0.021029 
0.021330 
0.021629 
0.021926 
0.022220 
0.022511 
0.022800 
0.023085 
0.023367 
0.023646 
0.023921 
0.024192 
0.024459 
0.024722 
0.024981 
0.025236 
0.025486 
0.025731 
0.025971 
0.026207 
0.026437 
0.026662 
0.026882 
0.027096 
0.027305 
0.027508 
0.027705 
0.027896 
0.028080 
0.028259 
0.028431 
0.028597 
0.028757 
0.028910 
0.029056 
0.029195 
0.029327 
0.029453 
0.029571 
0.029683 
0.029787 
0.029884 
0.029974 
0.030057 
0.030132 
0.030200 
0.030260 
0.030313 
0.030358 
0.030396 
0.030427 
0.030449 
0.030464 
0.030472 
0.000000 
0.000000 
0.000000 
0.000000 
0.000000 
0.000000 
0.000000 
0.000000 
0.000000 
0.000000 
0.000000 
0.000000 
0.000000 
0.000000 
0.000000 
0.000000 
0.000000 
0.000000 
0.000000 
0.000000 
0.000000 
0.000000 
0.000000 
0.000000 
0.000000 
0.000000 
0.000000 
0.000000 
0.000000 
0.000000 
0.000000 
0.000000 
0.000000 
0.000000 
0.000000 
0.000000 
0.000000 
0.000000 
0.000000 
0.000000 
0.000000 
0.000000 
0.000000 
0.000000 
0.000001 
0.000001 
0.000001 
0.000001 
0.000001 
0.000001 
0.000001 
0.000001 
0.000001 
0.000001 
0.000001 
0.000001 
0.000002 
0.000002 
0.000002 
0.000002 
0.000002 
0.000002 
0.000003 
0.000003 
0.000003 
0.000003 
0.000004 
0.000004 
0.000004 
0.000005 
0.000005 
0.000006 
0.000006 
0.000007 
0.000007 
0.000008 
0.000009 
0.000009 
0.000010 
0.000011 
0.000012 
0.000013 
0.000014 
0.000015 
0.000016 
0.000018 
0.000019 
0.000020 
0.000022 
0.000024 
0.000026 
0.000028 
0.000030 
0.000032 
0.000035 
0.000037 
0.000040 
0.000043 
0.000046 
0.000050 
0.000053 
0.000057 
0.000061 
0.000066 
0.000071 
0.000076 
0.000081 
0.000087 
0.000093 
0.000100 
0.000107 
0.000114 
0.000122 
0.000130 
0.000139 
0.000149 
0.000159 
0.000169 
0.000180 
0.000192 
0.000205 
0.000218 
0.000232 
0.000247 
0.000263 
0.000280 
0.000298 
0.000316 
0.000336 
0.000357 
0.000378 
0.000401 
0.000426 
0.000451 
0.000478 
0.000506 
0.000536 
0.000567 
0.000600 
0.000634 
0.000670 
0.000708 
0.000748 
0.000790 
0.000833 
0.000879 
0.000927 
0.000977 
0.001029 
0.001083 
0.001140 
0.001200 
0.001262 
0.001327 
0.001394 
0.001464 
0.001538 
0.001614 
0.001693 
0.001776 
0.001861 
0.001950 
0.002043 
0.002138 
0.002238 
0.002341 
0.002448 
0.002559 
0.002673 
0.002792 
0.002914 
0.003041 
0.003172 
0.003307 
0.003446 
0.003590 
0.003739 
0.003892 
0.004049 
0.004211 
0.004378 
0.004550 
0.004726 
0.004908 
0.005094 
0.005285 
0.005481 
0.005682 
0.005888 
0.006099 
0.006315 
0.006536 
0.006762 
0.006993 
0.007229 
0.007471 
0.007717 
0.007968 
0.008224 
0.008485 
0.008751 
0.009021 
0.009297 
0.009577 
0.009862 
0.010151 
0.010445 
0.010744 
0.011046 
0.011353 
0.011664 
0.011979 
0.012298 
0.012621 
0.012948 
0.013278 
0.013611 
0.013948 
0.014288 
0.014631 
0.014977 
0.015326 
0.015677 
0.016031 
0.016387 
0.016745 
0.017104 
0.017466 
0.017829 
0.018193 
0.018559 
0.018925 
0.019293 
0.019660 
0.020029 
0.020397 
0.020766 
0.021134 
0.021501 
0.021869 
0.022235 
0.022600 
0.022964 
0.023327 
0.023688 
0.024047 
0.024404 
0.024758 
0.025111 
0.025460 
0.025807 
0.026150 
0.026491 
0.026827 
0.027160 
0.027490 
0.027815 
0.028136 
0.028452 
0.028764 
0.029071 
0.029373 
0.029670 
0.029962 
0.030248 
0.030528 
0.030803 
0.031071 
0.031334 
0.031590 
0.031839 
0.032082 
0.032319 
0.032548 
0.032771 
0.032986 
0.033194 
0.033395 
0.033588 
0.033773 
0.033951 
0.034121 
0.034284 
0.034438 
0.034584 
0.034722 
0.034852 
0.034973 
0.035086 
0.035191 
0.035287 
0.035374 
0.035453 
0.035523 
0.035585 
0.035638 
0.035682 
0.035717 
0.035743 
0.035761 
0.035770 
0.000000 
0.000000 
0.000000 
0.000000 
0.000000 
0.000000 
0.000000 
0.000000 
0.000000 
0.000000 
0.000000 
0.000000 
0.000000 
0.000000 
0.000000 
0.000000 
0.000000 
0.000000 
0.000000 
0.000000 
0.000000 
0.000000 
0.000000 
0.000000 
0.000000 
0.000000 
0.000000 
0.000000 
0.000000 
0.000000 
0.000000 
0.000000 
0.000000 
0.000000 
0.000000 
0.000000 
0.000000 
0.000000 
0.000000 
0.000000 
0.000000 
0.000000 
0.000001 
0.000001 
0.000001 
0.000001 
0.000001 
0.000001 
0.000001 
0.000001 
0.000001 
0.000001 
0.000001 
0.000001 
0.000002 
0.000002 
0.000002 
0.000002 
0.000002 
0.000002 
0.000003 
0.000003 
0.000003 
0.000003 
0.000004 
0.000004 
0.000004 
0.000005 
0.000005 
0.000006 
0.000006 
0.000007 
0.000007 
0.000008 
0.000009 
0.000009 
0.000010 
0.000011 
0.000012 
0.000013 
0.000014 
0.000015 
0.000016 
0.000018 
0.000019 
0.000021 
0.000022 
0.000024 
0.000026 
0.000028 
0.000030 
0.000032 
0.000035 
0.000038 
0.000041 
0.000044 
0.000047 
0.000050 
0.000054 
0.000058 
0.000063 
0.000067 
0.000072 
0.000077 
0.000083 
0.000089 
0.000095 
0.000102 
0.000109 
0.000117 
0.000125 
0.000134 
0.000143 
0.000153 
0.000163 
0.000174 
0.000186 
0.000198 
0.000211 
0.000225 
0.000240 
0.000256 
0.000272 
0.000290 
0.000308 
0.000328 
0.000348 
0.000370 
0.000393 
0.000417 
0.000443 
0.000470 
0.000498 
0.000528 
0.000559 
0.000592 
0.000627 
0.000664 
0.000702 
0.000742 
0.000784 
0.000829 
0.000875 
0.000924 
0.000975 
0.001028 
0.001084 
0.001142 
0.001203 
0.001267 
0.001333 
0.001403 
0.001475 
0.001550 
0.001629 
0.001711 
0.001797 
0.001885 
0.001978 
0.002074 
0.002174 
0.002277 
0.002385 
0.002497 
0.002613 
0.002733 
0.002857 
0.002986 
0.003119 
0.003257 
0.003400 
0.003548 
0.003700 
0.003857 
0.004019 
0.004187 
0.004359 
0.004537 
0.004720 
0.004909 
0.005103 
0.005302 
0.005507 
0.005717 
0.005933 
0.006155 
0.006383 
0.006616 
0.006855 
0.007099 
0.007350 
0.007606 
0.007868 
0.008136 
0.008410 
0.008689 
0.008974 
0.009265 
0.009561 
0.009863 
0.010171 
0.010484 
0.010803 
0.011127 
0.011456 
0.011790 
0.012130 
0.012475 
0.012824 
0.013179 
0.013538 
0.013902 
0.014270 
0.014642 
0.015019 
0.015400 
0.015784 
0.016173 
0.016564 
0.016960 
0.017358 
0.017760 
0.018164 
0.018571 
0.018981 
0.019393 
0.019807 
0.020222 
0.020640 
0.021059 
0.021479 
0.021900 
0.022322 
0.022745 
0.023167 
0.023590 
0.024013 
0.024436 
0.024858 
0.025279 
0.025699 
0.026118 
0.026535 
0.026951 
0.027365 
0.027776 
0.028185 
0.028591 
0.028995 
0.029395 
0.029792 
0.030185 
0.030575 
0.030960 
0.031341 
0.031718 
0.032090 
0.032456 
0.032818 
0.033175 
0.033526 
0.033871 
0.034210 
0.034543 
0.034870 
0.035190 
0.035504 
0.035811 
0.036110 
0.036402 
0.036687 
0.036965 
0.037235 
0.037496 
0.037750 
0.037996 
0.038233 
0.038462 
0.038682 
0.038894 
0.039097 
0.039291 
0.039476 
0.039652 
0.039818 
0.039975 
0.040123 
0.040262 
0.040390 
0.040510 
0.040619 
0.040719 
0.040809 
0.040889 
0.040959 
0.041019 
0.041069 
0.041109 
0.041140 
0.041160 
0.041170 
0.000000 
0.000000 
0.000000 
0.000000 
0.000000 
0.000000 
0.000000 
0.000000 
0.000000 
0.000000 
0.000000 
0.000000 
0.000000 
0.000000 
0.000000 
0.000000 
0.000000 
0.000000 
0.000000 
0.000000 
0.000000 
0.000000 
0.000000 
0.000000 
0.000000 
0.000000 