# vtk DataFile Version 3.0
results.vtk
ASCII
DATASET RECTILINEAR_GRID
DIMENSIONS 301 301 1
X_COORDINATES 301 double
0.000000 0.003333 0.006667 0.010000 0.013333 0.016667 0.020000 0.023333 0.026667 0.030000 0.033333 0.036667 0.040000 0.043333 0.046667 0.050000 0.053333 0.056667 0.060000 0.063333 0.066667 0.070000 0.073333 0.076667 0.080000 0.083333 0.086667 0.090000 0.093333 0.096667 0.100000 0.103333 0.106667 0.110000 0.113333 0.116667 0.120000 0.123333 0.126667 0.130000 0.133333 0.136667 0.140000 0.143333 0.146667 0.150000 0.153333 0.156667 0.160000 0.163333 0.166667 0.170000 0.173333 0.176667 0.180000 0.183333 0.186667 0.190000 0.193333 0.196667 0.200000 0.203333 0.206667 0.210000 0.213333 0.216667 0.220000 0.223333 0.226667 0.230000 0.233333 0.236667 0.240000 0.243333 0.246667 0.250000 0.253333 0.256667 0.260000 0.263333 0.266667 0.270000 0.273333 0.276667 0.280000 0.283333 0.286667 0.290000 0.293333 0.296667 0.300000 0.303333 0.306667 0.310000 0.313333 0.316667 0.320000 0.323333 0.326667 0.330000 0.333333 0.336667 0.340000 0.343333 0.346667 0.350000 0.353333 0.356667 0.360000 0.363333 0.366667 0.370000 0.373333 0.376667 0.380000 0.383333 0.386667 0.390000 0.393333 0.396667 0.400000 0.403333 0.406667 0.410000 0.413333 0.416667 0.420000 0.423333 0.426667 0.430000 0.433333 0.436667 0.440000 0.443333 0.446667 0.450000 0.453333 0.456667 0.460000 0.463333 0.466667 0.470000 0.473333 0.476667 0.480000 0.483333 0.486667 0.490000 0.493333 0.496667 0.500000 0.503333 0.506667 0.510000 0.513333 0.516667 0.520000 0.523333 0.526667 0.530000 0.533333 0.536667 0.540000 0.543333 0.546667 0.550000 0.553333 0.556667 0.560000 0.563333 0.566667 0.570000 0.573333 0.576667 0.580000 0.583333 0.586667 0.590000 0.593333 0.596667 0.600000 0.603333 0.606667 0.610000 0.613333 0.616667 0.620000 0.623333 0.626667 0.630000 0.633333 0.636667 0.640000 0.643333 0.646667 0.650000 0.653333 0.656667 0.660000 0.663333 0.666667 0.670000 0.673333 0.676667 0.680000 0.683333 0.686667 0.690000 0.693333 0.696667 0.700000 0.703333 0.706667 0.710000 0.713333 0.716667 0.720000 0.723333 0.726667 0.730000 0.733333 0.736667 0.740000 0.743333 0.746667 0.750000 0.753333 0.756667 0.760000 0.763333 0.766667 0.770000 0.773333 0.776667 0.780000 0.783333 0.786667 0.790000 0.793333 0.796667 0.800000 0.803333 0.806667 0.810000 0.813333 0.816667 0.820000 0.823333 0.826667 0.830000 0.833333 0.836667 0.840000 0.843333 0.846667 0.850000 0.853333 0.856667 0.860000 0.863333 0.866667 0.870000 0.873333 0.876667 0.880000 0.883333 0.886667 0.890000 0.893333 0.896667 0.900000 0.903333 0.906667 0.910000 0.913333 0.916667 0.920000 0.923333 0.926667 0.930000 0.933333 0.936667 0.940000 0.943333 0.946667 0.950000 0.953333 0.956667 0.960000 0.963333 0.966667 0.970000 0.973333 0.976667 0.980000 0.983333 0.986667 0.990000 0.993333 0.996667 1.000000 
Y_COORDINATES 301 double
0.000000 0.003333 0.006667 0.010000 0.013333 0.016667 0.020000 0.023333 0.026667 0.030000 0.033333 0.036667 0.040000 0.043333 0.046667 0.050000 0.053333 0.056667 0.060000 0.063333 0.066667 0.070000 0.073333 0.076667 0.080000 0.083333 0.086667 0.090000 0.093333 0.096667 0.100000 0.103333 0.106667 0.110000 0.113333 0.116667 0.120000 0.123333 0.126667 0.130000 0.133333 0.136667 0.140000 0.143333 0.146667 0.150000 0.153333 0.156667 0.160000 0.163333 0.166667 0.170000 0.173333 0.176667 0.180000 0.183333 0.186667 0.190000 0.193333 0.196667 0.200000 0.203333 0.206667 0.210000 0.213333 0.216667 0.220000 0.223333 0.226667 0.230000 0.233333 0.236667 0.240000 0.243333 0.246667 0.250000 0.253333 0.256667 0.260000 0.263333 0.266667 0.270000 0.273333 0.276667 0.280000 0.283333 0.286667 0.290000 0.293333 0.296667 0.300000 0.303333 0.306667 0.310000 0.313333 0.316667 0.320000 0.323333 0.326667 0.330000 0.333333 0.336667 0.340000 0.343333 0.346667 0.350000 0.353333 0.356667 0.360000 0.363333 0.366667 0.370000 0.373333 0.376667 0.380000 0.383333 0.386667 0.390000 0.393333 0.396667 0.400000 0.403333 0.406667 0.410000 0.413333 0.416667 0.420000 0.423333 0.426667 0.430000 0.433333 0.436667 0.440000 0.443333 0.446667 0.450000 0.453333 0.456667 0.460000 0.463333 0.466667 0.470000 0.473333 0.476667 0.480000 0.483333 0.486667 0.490000 0.493333 0.496667 0.500000 0.503333 0.506667 0.510000 0.513333 0.516667 0.520000 0.523333 0.526667 0.530000 0.533333 0.536667 0.540000 0.543333 0.546667 0.550000 0.553333 0.556667 0.560000 0.563333 0.566667 0.570000 0.573333 0.576667 0.580000 0.583333 0.586667 0.590000 0.593333 0.596667 0.600000 0.603333 0.606667 0.610000 0.613333 0.616667 0.620000 0.623333 0.626667 0.630000 0.633333 0.636667 0.640000 0.643333 0.646667 0.650000 0.653333 0.656667 0.660000 0.663333 0.666667 0.670000 0.673333 0.676667 0.680000 0.683333 0.686667 0.690000 0.693333 0.696667 0.700000 0.703333 0.706667 0.710000 0.713333 0.716667 0.720000 0.723333 0.726667 0.730000 0.733333 0.736667 0.740000 0.743333 0.746667 0.750000 0.753333 0.756667 0.760000 0.763333 0.766667 0.770000 0.773333 0.776667 0.780000 0.783333 0.786667 0.790000 0.793333 0.796667 0.800000 0.803333 0.806667 0.810000 0.813333 0.816667 0.820000 0.823333 0.826667 0.830000 0.833333 0.836667 0.840000 0.843333 0.846667 0.850000 0.853333 0.856667 0.860000 0.863333 0.866667 0.870000 0.873333 0.876667 0.880000 0.883333 0.886667 0.890000 0.893333 0.896667 0.900000 0.903333 0.906667 0.910000 0.913333 0.916667 0.920000 0.923333 0.926667 0.930000 0.933333 0.936667 0.940000 0.943333 0.946667 0.950000 0.953333 0.956667 0.960000 0.963333 0.966667 0.970000 0.973333 0.976667 0.980000 0.983333 0.986667 0.990000 0.993333 0.996667 1.000000 
Z_COORDINATES 1 double
0
POINT_DATA 90601 
FIELD FieldData 1 
Concentração 1 90601 double 
0.000000 
0.000000 
0.000000 
0.000000 
0.000000 
0.000000 
0.000000 
0.000000 
0.000000 
0.000000 
0.000000 
0.000000 
0.000000 
0.000000 
0.000000 
0.000000 
0.000000 
0.000000 
0.000000 
0.000000 
0.000000 
0.000000 
0.000000 
0.000000 
0.000000 
0.000000 
0.000000 
0.000000 
0.000000 
0.000000 
0.000000 
0.000000 
0.000000 
0.000000 
0.000000 
0.000000 
0.000000 
0.000000 
0.000000 
0.000000 
0.000000 
0.000000 
0.000000 
0.000000 
0.000000 
0.000000 
0.000000 
0.000000 
0.000000 
0.000000 
0.000000 
0.000000 
0.000000 
0.000000 
0.000000 
0.000000 
0.000000 
0.000000 
0.000000 
0.000000 
0.000000 
0.000000 
0.000000 
0.000000 
0.000000 
0.000000 
0.000000 
0.000000 
0.000000 
0.000000 
0.000000 
0.000000 
0.000000 
0.000000 
0.000000 
0.000000 
0.000000 
0.000000 
0.000000 
0.000000 
0.000000 
0.000000 
0.000000 
0.000000 
0.000000 
0.000000 
0.000000 
0.000000 
0.000000 
0.000000 
0.000000 
0.000000 
0.000000 
0.000000 
0.000000 
0.000000 
0.000000 
0.000000 
0.000000 
0.000000 
0.000000 
0.000000 
0.000000 
0.000000 
0.000001 
0.000001 
0.000001 
0.000001 
0.000001 
0.000001 
0.000001 
0.000001 
0.000001 
0.000001 
0.000001 
0.000001 
0.000001 
0.000001 
0.000001 
0.000002 
0.000002 
0.000002 
0.000002 
0.000002 
0.000002 
0.000002 
0.000002 
0.000003 
0.000003 
0.000003 
0.000003 
0.000003 
0.000004 
0.000004 
0.000004 
0.000004 
0.000005 
0.000005 
0.000005 
0.000006 
0.000006 
0.000006 
0.000007 
0.000007 
0.000008 
0.000008 
0.000009 
0.000009 
0.000010 
0.000010 
0.000011 
0.000011 
0.000012 
0.000013 
0.000014 
0.000014 
0.000015 
0.000016 
0.000017 
0.000018 
0.000019 
0.000020 
0.000021 
0.000022 
0.000023 
0.000024 
0.000026 
0.000027 
0.000028 
0.000030 
0.000031 
0.000033 
0.000034 
0.000036 
0.000038 
0.000040 
0.000041 
0.000043 
0.000045 
0.000048 
0.000050 
0.000052 
0.000054 
0.000057 
0.000059 
0.000062 
0.000065 
0.000067 
0.000070 
0.000073 
0.000076 
0.000079 
0.000083 
0.000086 
0.000090 
0.000093 
0.000097 
0.000101 
0.000104 
0.000108 
0.000112 
0.000117 
0.000121 
0.000125 
0.000130 
0.000135 
0.000139 
0.000144 
0.000149 
0.000154 
0.000159 
0.000165 
0.000170 
0.000176 
0.000181 
0.000187 
0.000193 
0.000199 
0.000205 
0.000211 
0.000217 
0.000223 
0.000230 
0.000236 
0.000243 
0.000250 
0.000257 
0.000263 
0.000270 
0.000277 
0.000285 
0.000292 
0.000299 
0.000306 
0.000314 
0.000321 
0.000329 
0.000336 
0.000344 
0.000352 
0.000359 
0.000367 
0.000375 
0.000382 
0.000390 
0.000398 
0.000406 
0.000414 
0.000421 
0.000429 
0.000437 
0.000445 
0.000452 
0.000460 
0.000468 
0.000475 
0.000483 
0.000490 
0.000498 
0.000505 
0.000512 
0.000519 
0.000527 
0.000534 
0.000541 
0.000547 
0.000554 
0.000561 
0.000567 
0.000573 
0.000580 
0.000586 
0.000592 
0.000597 
0.000603 
0.000608 
0.000614 
0.000619 
0.000624 
0.000628 
0.000633 
0.000637 
0.000642 
0.000646 
0.000649 
0.000653 
0.000656 
0.000660 
0.000662 
0.000665 
0.000668 
0.000670 
0.000672 
0.000674 
0.000676 
0.000677 
0.000678 
0.000679 
0.000680 
0.000680 
0.000680 
0.000000 
0.000000 
0.000000 
0.000000 
0.000000 
0.000000 
0.000000 
0.000000 
0.000000 
0.000000 
0.000000 
0.000000 
0.000000 
0.000000 
0.000000 
0.000000 
0.000000 
0.000000 
0.000000 
0.000000 
0.000000 
0.000000 
0.000000 
0.000000 
0.000000 
0.000000 
0.000000 
0.000000 
0.000000 
0.000000 
0.000000 
0.000000 
0.000000 
0.000000 
0.000000 
0.000000 
0.000000 
0.000000 
0.000000 
0.000000 
0.000000 
0.000000 
0.000000 
0.000000 
0.000000 
0.000000 
0.000000 
0.000000 
0.000000 
0.000000 
0.000000 
0.000000 
0.000000 
0.000000 
0.000000 
0.000000 
0.000000 
0.000000 
0.000000 
0.000000 
0.000000 
0.000000 
0.000000 
0.000000 
0.000000 
0.000000 
0.000000 
0.000000 
0.000000 
0.000000 
0.000000 
0.000000 
0.000000 
0.000000 
0.000000 
0.000000 
0.000000 
0.000000 
0.000000 
0.000000 
0.000000 
0.000000 
0.000000 
0.000000 
0.000000 
0.000000 
0.000000 
0.000000 
0.000000 
0.000000 
0.000000 
0.000000 
0.000000 
0.000000 
0.000000 
0.000001 
0.000001 
0.000001 
0.000001 
0.000001 
0.000001 
0.000001 
0.000001 
0.000001 
0.000001 
0.000001 
0.000001 
0.000001 
0.000001 
0.000002 
0.000002 
0.000002 
0.000002 
0.000002 
0.000002 
0.000002 
0.000002 
0.000003 
0.000003 
0.000003 
0.000003 
0.000004 
0.000004 
0.000004 
0.000004 
0.000005 
0.000005 
0.000005 
0.000006 
0.000006 
0.000006 
0.000007 
0.000007 
0.000008 
0.000008 
0.000009 
0.000009 
0.000010 
0.000011 
0.000011 
0.000012 
0.000013 
0.000014 
0.000014 
0.000015 
0.000016 
0.000017 
0.000018 
0.000019 
0.000021 
0.000022 
0.000023 
0.000024 
0.000026 
0.000027 
0.000029 
0.000030 
0.000032 
0.000034 
0.000036 
0.000038 
0.000040 
0.000042 
0.000044 
0.000046 
0.000049 
0.000051 
0.000054 
0.000057 
0.000060 
0.000063 
0.000066 
0.000069 
0.000072 
0.000076 
0.000080 
0.000083 
0.000087 
0.000091 
0.000096 
0.000100 
0.000105 
0.000109 
0.000114 
0.000119 
0.000125 
0.000130 
0.000136 
0.000141 
0.000147 
0.000153 
0.000160 
0.000166 
0.000173 
0.000180 
0.000187 
0.000195 
0.000202 
0.000210 
0.000218 
0.000226 
0.000235 
0.000243 
0.000252 
0.000261 
0.000271 
0.000280 
0.000290 
0.000300 
0.000310 
0.000320 
0.000331 
0.000342 
0.000353 
0.000364 
0.000376 
0.000387 
0.000399 
0.000412 
0.000424 
0.000436 
0.000449 
0.000462 
0.000475 
0.000489 
0.000502 
0.000516 
0.000530 
0.000544 
0.000558 
0.000572 
0.000587 
0.000601 
0.000616 
0.000631 
0.000646 
0.000661 
0.000676 
0.000691 
0.000707 
0.000722 
0.000738 
0.000753 
0.000769 
0.000784 
0.000800 
0.000816 
0.000831 
0.000847 
0.000863 
0.000878 
0.000894 
0.000909 
0.000925 
0.000940 
0.000955 
0.000970 
0.000985 
0.001000 
0.001015 
0.001030 
0.001044 
0.001058 
0.001072 
0.001086 
0.001100 
0.001113 
0.001127 
0.001140 
0.001152 
0.001165 
0.001177 
0.001189 
0.001200 
0.001212 
0.001223 
0.001233 
0.001243 
0.001253 
0.001263 
0.001272 
0.001281 
0.001289 
0.001297 
0.001305 
0.001312 
0.001319 
0.001325 
0.001331 
0.001337 
0.001342 
0.001346 
0.001351 
0.001354 
0.001358 
0.001360 
0.001363 
0.001365 
0.001366 
0.001367 
0.001367 
0.000000 
0.000000 
0.000000 
0.000000 
0.000000 
0.000000 
0.000000 
0.000000 
0.000000 
0.000000 
0.000000 
0.000000 
0.000000 
0.000000 
0.000000 
0.000000 
0.000000 
0.000000 
0.000000 
0.000000 
0.000000 
0.000000 
0.000000 
0.000000 
0.000000 
0.000000 
0.000000 
0.000000 
0.000000 
0.000000 
0.000000 
0.000000 
0.000000 
0.000000 
0.000000 
0.000000 
0.000000 
0.000000 
0.000000 
0.000000 
0.000000 
0.000000 
0.000000 
0.000000 
0.000000 
0.000000 
0.000000 
0.000000 
0.000000 
0.000000 
0.000000 
0.000000 
0.000000 
0.000000 
0.000000 
0.000000 
0.000000 
0.000000 
0.000000 
0.000000 
0.000000 
0.000000 
0.000000 
0.000000 
0.000000 
0.000000 
0.000000 
0.000000 
0.000000 
0.000000 
0.000000 
0.000000 
0.000000 
0.000000 
0.000000 
0.000000 
0.000000 
0.000000 
0.000000 
0.000000 
0.000000 
0.000000 
0.000000 
0.000000 
0.000000 
0.000000 
0.000000 
0.000000 
0.000000 
0.000000 
0.000001 
0.000001 
0.000001 
0.000001 
0.000001 
0.000001 
0.000001 
0.000001 
0.000001 
0.000001 
0.000001 
0.000001 
0.000001 
0.000001 
0.000002 
0.000002 
0.000002 
0.000002 
0.000002 
0.000002 
0.000002 
0.000003 
0.000003 
0.000003 
0.000003 
0.000004 
0.000004 
0.000004 
0.000004 
0.000005 
0.000005 
0.000005 
0.000006 
0.000006 
0.000007 
0.000007 
0.000008 
0.000008 
0.000009 
0.000009 
0.000010 
0.000010 
0.000011 
0.000012 
0.000013 
0.000013 
0.000014 
0.000015 
0.000016 
0.000017 
0.000018 
0.000019 
0.000021 
0.000022 
0.000023 
0.000025 
0.000026 
0.000028 
0.000029 
0.000031 
0.000033 
0.000035 
0.000037 
0.000039 
0.000041 
0.000044 
0.000046 
0.000049 
0.000051 
0.000054 
0.000057 
0.000060 
0.000063 
0.000067 
0.000070 
0.000074 
0.000078 
0.000082 
0.000086 
0.000090 
0.000095 
0.000100 
0.000105 
0.000110 
0.000115 
0.000121 
0.000126 
0.000132 
0.000138 
0.000145 
0.000152 
0.000158 
0.000166 
0.000173 
0.000181 
0.000189 
0.000197 
0.000205 
0.000214 
0.000223 
0.000232 
0.000242 
0.000252 
0.000262 
0.000273 
0.000284 
0.000295 
0.000306 
0.000318 
0.000330 
0.000342 
0.000355 
0.000368 
0.000382 
0.000395 
0.000410 
0.000424 
0.000439 
0.000454 
0.000469 
0.000485 
0.000501 
0.000518 
0.000534 
0.000551 
0.000569 
0.000587 
0.000605 
0.000623 
0.000642 
0.000661 
0.000680 
0.000699 
0.000719 
0.000739 
0.000760 
0.000781 
0.000801 
0.000823 
0.000844 
0.000866 
0.000888 
0.000910 
0.000932 
0.000954 
0.000977 
0.001000 
0.001023 
0.001046 
0.001069 
0.001092 
0.001116 
0.001139 
0.001163 
0.001187 
0.001210 
0.001234 
0.001257 
0.001281 
0.001305 
0.001328 
0.001352 
0.001375 
0.001398 
0.001422 
0.001445 
0.001468 
0.001490 
0.001513 
0.001535 
0.001557 
0.001579 
0.001601 
0.001622 
0.001643 
0.001663 
0.001684 
0.001704 
0.001723 
0.001743 
0.001761 
0.001780 
0.001798 
0.001815 
0.001832 
0.001849 
0.001865 
0.001880 
0.001895 
0.001910 
0.001923 
0.001937 
0.001949 
0.001961 
0.001973 
0.001984 
0.001994 
0.002004 
0.002013 
0.002021 
0.002029 
0.002036 
0.002042 
0.002048 
0.002053 
0.002057 
0.002060 
0.002063 
0.002065 
0.002067 
0.002067 
0.000000 
0.000000 
0.000000 
0.000000 
0.000000 
0.000000 
0.000000 
0.000000 
0.000000 
0.000000 
0.000000 
0.000000 
0.000000 
0.000000 
0.000000 
0.000000 
0.000000 
0.000000 
0.000000 
0.000000 
0.000000 
0.000000 
0.000000 
0.000000 
0.000000 
0.000000 
0.000000 
0.000000 
0.000000 
0.000000 
0.000000 
0.000000 
0.000000 
0.000000 
0.000000 
0.000000 
0.000000 
0.000000 
0.000000 
0.000000 
0.000000 
0.000000 
0.000000 
0.000000 
0.000000 
0.000000 
0.000000 
0.000000 
0.000000 
0.000000 
0.000000 
0.000000 
0.000000 
0.000000 
0.000000 
0.000000 
0.000000 
0.000000 
0.000000 
0.000000 
0.000000 
0.000000 
0.000000 
0.000000 
0.000000 
0.000000 
0.000000 
0.000000 
0.000000 
0.000000 
0.000000 
0.000000 
0.000000 
0.000000 
0.000000 
0.000000 
0.000000 
0.000000 
0.000000 
0.000000 
0.000000 
0.000000 
0.000000 
0.000000 
0.000000 
0.000000 
0.000001 
0.000001 
0.000001 
0.000001 
0.000001 
0.000001 
0.000001 
0.000001 
0.000001 
0.000001 
0.000001 
0.000001 
0.000001 
0.000001 
0.000002 
0.000002 
0.000002 
0.000002 
0.000002 
0.000002 
0.000002 
0.000003 
0.000003 
0.000003 
0.000003 
0.000004 
0.000004 
0.000004 
0.000004 
0.000005 
0.000005 
0.000005 
0.000006 
0.000006 
0.000007 
0.000007 
0.000008 
0.000008 
0.000009 
0.000010 
0.000010 
0.000011 
0.000012 
0.000012 
0.000013 
0.000014 
0.000015 
0.000016 
0.000017 
0.000018 
0.000019 
0.000021 
0.000022 
0.000023 
0.000025 
0.000026 
0.000028 
0.000030 
0.000032 
0.000033 
0.000035 
0.000038 
0.000040 
0.000042 
0.000045 
0.000047 
0.000050 
0.000053 
0.000056 
0.000059 
0.000062 
0.000066 
0.000069 
0.000073 
0.000077 
0.000081 
0.000086 
0.000090 
0.000095 
0.000100 
0.000105 
0.000111 
0.000116 
0.000122 
0.000128 
0.000135 
0.000141 
0.000148 
0.000155 
0.000163 
0.000171 
0.000179 
0.000187 
0.000196 
0.000205 
0.000214 
0.000224 
0.000234 
0.000244 
0.000255 
0.000266 
0.000277 
0.000289 
0.000301 
0.000314 
0.000327 
0.000340 
0.000354 
0.000368 
0.000383 
0.000398 
0.000414 
0.000429 
0.000446 
0.000463 
0.000480 
0.000497 
0.000516 
0.000534 
0.000553 
0.000573 
0.000592 
0.000613 
0.000634 
0.000655 
0.000677 
0.000699 
0.000721 
0.000744 
0.000768 
0.000792 
0.000816 
0.000841 
0.000866 
0.000892 
0.000918 
0.000944 
0.000971 
0.000998 
0.001026 
0.001054 
0.001082 
0.001110 
0.001139 
0.001168 
0.001198 
0.001228 
0.001258 
0.001288 
0.001319 
0.001349 
0.001380 
0.001411 
0.001443 
0.001474 
0.001506 
0.001537 
0.001569 
0.001601 
0.001633 
0.001665 
0.001696 
0.001728 
0.001760 
0.001792 
0.001823 
0.001855 
0.001886 
0.001918 
0.001949 
0.001979 
0.002010 
0.002040 
0.002070 
0.002100 
0.002129 
0.002158 
0.002187 
0.002215 
0.002243 
0.002270 
0.002297 
0.002324 
0.002350 
0.002375 
0.002400 
0.002424 
0.002447 
0.002470 
0.002492 
0.002514 
0.002535 
0.002555 
0.002574 
0.002593 
0.002611 
0.002628 
0.002644 
0.002660 
0.002674 
0.002688 
0.002701 
0.002713 
0.002724 
0.002735 
0.002744 
0.002753 
0.002760 
0.002767 
0.002772 
0.002777 
0.002781 
0.002784 
0.002786 
0.002787 
0.000000 
0.000000 
0.000000 
0.000000 
0.000000 
0.000000 
0.000000 
0.000000 
0.000000 
0.000000 
0.000000 
0.000000 
0.000000 
0.000000 
0.000000 
0.000000 
0.000000 
0.000000 
0.000000 
0.000000 
0.000000 
0.000000 
0.000000 
0.000000 
0.000000 
0.000000 
0.000000 
0.000000 
0.000000 
0.000000 
0.000000 
0.000000 
0.000000 
0.000000 
0.000000 
0.000000 
0.000000 
0.000000 
0.000000 
0.000000 
0.000000 
0.000000 
0.000000 
0.000000 
0.000000 
0.000000 
0.000000 
0.000000 
0.000000 
0.000000 
0.000000 
0.000000 
0.000000 
0.000000 
0.000000 
0.000000 
0.000000 
0.000000 
0.000000 
0.000000 
0.000000 
0.000000 
0.000000 
0.000000 
0.000000 
0.000000 
0.000000 
0.000000 
0.000000 
0.000000 
0.000000 
0.000000 
0.000000 
0.000000 
0.000000 
0.000000 
0.000000 
0.000000 
0.000000 
0.000000 
0.000000 
0.000000 
0.000000 
0.000001 
0.000001 
0.000001 
0.000001 
0.000001 
0.000001 
0.000001 
0.000001 
0.000001 
0.000001 
0.000001 
0.000001 
0.000001 
0.000001 
0.000002 
0.000002 
0.000002 
0.000002 
0.000002 
0.000002 
0.000003 
0.000003 
0.000003 
0.000003 
0.000003 
0.000004 
0.000004 
0.000004 
0.000005 
0.000005 
0.000005 
0.000006 
0.000006 
0.000007 
0.000007 
0.000008 
0.000008 
0.000009 
0.000009 
0.000010 
0.000011 
0.000011 
0.000012 
0.000013 
0.000014 
0.000015 
0.000016 
0.000017 
0.000018 
0.000019 
0.000020 
0.000022 
0.000023 
0.000025 
0.000026 
0.000028 
0.000030 
0.000032 
0.000034 
0.000036 
0.000038 
0.000040 
0.000043 
0.000045 
0.000048 
0.000051 
0.000054 
0.000057 
0.000060 
0.000064 
0.000067 
0.000071 
0.000075 
0.000079 
0.000084 
0.000088 
0.000093 
0.000098 
0.000104 
0.000109 
0.000115 
0.000121 
0.000127 
0.000134 
0.000141 
0.000148 
0.000155 
0.000163 
0.000171 
0.000180 
0.000189 
0.000198 
0.000207 
0.000217 
0.000227 
0.000238 
0.000249 
0.000260 
0.000272 
0.000285 
0.000297 
0.000310 
0.000324 
0.000338 
0.000353 
0.000368 
0.000383 
0.000399 
0.000416 
0.000433 
0.000450 
0.000468 
0.000487 
0.000506 
0.000526 
0.000546 
0.000567 
0.000588 
0.000610 
0.000632 
0.000655 
0.000679 
0.000703 
0.000728 
0.000753 
0.000779 
0.000805 
0.000832 
0.000860 
0.000888 
0.000916 
0.000946 
0.000976 
0.001006 
0.001037 
0.001068 
0.001100 
0.001133 
0.001166 
0.001199 
0.001233 
0.001268 
0.001302 
0.001338 
0.001374 
0.001410 
0.001446 
0.001483 
0.001521 
0.001559 
0.001597 
0.001635 
0.001674 
0.001713 
0.001752 
0.001791 
0.001831 
0.001871 
0.001911 
0.001951 
0.001991 
0.002031 
0.002072 
0.002112 
0.002152 
0.002193 
0.002233 
0.002273 
0.002313 
0.002353 
0.002393 
0.002432 
0.002472 
0.002511 
0.002549 
0.002588 
0.002626 
0.002663 
0.002701 
0.002737 
0.002774 
0.002809 
0.002845 
0.002879 
0.002913 
0.002947 
0.002979 
0.003011 
0.003043 
0.003073 
0.003103 
0.003132 
0.003160 
0.003187 
0.003214 
0.003239 
0.003264 
0.003287 
0.003310 
0.003332 
0.003352 
0.003372 
0.003390 
0.003408 
0.003424 
0.003439 
0.003454 
0.003467 
0.003478 
0.003489 
0.003499 
0.003507 
0.003514 
0.003520 
0.003525 
0.003529 
0.003531 
0.003532 
0.000000 
0.000000 
0.000000 
0.000000 
0.000000 
0.000000 
0.000000 
0.000000 
0.000000 
0.000000 
0.000000 
0.000000 
0.000000 
0.000000 
0.000000 
0.000000 
0.000000 
0.000000 
0.000000 
0.000000 
0.000000 
0.000000 
0.000000 
0.000000 
0.000000 
0.000000 
0.000000 
0.000000 
0.000000 
0.000000 
0.000000 
0.000000 
0.000000 
0.000000 
0.000000 
0.000000 
0.000000 
0.000000 
0.000000 
0.000000 
0.000000 
0.000000 
0.000000 
0.000000 
0.000000 
0.000000 
0.000000 
0.000000 
0.000000 
0.000000 
0.000000 
0.000000 
0.000000 
0.000000 
0.000000 
0.000000 
0.000000 
0.000000 
0.000000 
0.000000 
0.000000 
0.000000 
0.000000 
0.000000 
0.000000 
0.000000 
0.000000 
0.000000 
0.000000 
0.000000 
0.000000 
0.000000 
0.000000 
0.000000 
0.000000 
0.000000 
0.000000 
0.000000 
0.000000 
0.000000 
0.000000 
0.000001 
0.000001 
0.000001 
0.000001 
0.000001 
0.000001 
0.000001 
0.000001 
0.000001 
0.000001 
0.000001 
0.000001 
0.000001 
0.000002 
0.000002 
0.000002 
0.000002 
0.000002 
0.000002 
0.000002 
0.000003 
0.000003 
0.000003 
0.000003 
0.000004 
0.000004 
0.000004 
0.000004 
0.000005 
0.000005 
0.000006 
0.000006 
0.000006 
0.000007 
0.000007 
0.000008 
0.000009 
0.000009 
0.000010 
0.000011 
0.000011 
0.000012 
0.000013 
0.000014 
0.000015 
0.000016 
0.000017 
0.000018 
0.000019 
0.000021 
0.000022 
0.000023 
0.000025 
0.000027 
0.000028 
0.000030 
0.000032 
0.000034 
0.000036 
0.000039 
0.000041 
0.000044 
0.000046 
0.000049 
0.000052 
0.000055 
0.000059 
0.000062 
0.000066 
0.000070 
0.000074 
0.000078 
0.000082 
0.000087 
0.000092 
0.000097 
0.000103 
0.000108 
0.000114 
0.000120 
0.000127 
0.000134 
0.000141 
0.000148 
0.000156 
0.000164 
0.000173 
0.000181 
0.000191 
0.000200 
0.000210 
0.000220 
0.000231 
0.000242 
0.000254 
0.000266 
0.000279 
0.000292 
0.000305 
0.000319 
0.000334 
0.000349 
0.000364 
0.000380 
0.000397 
0.000414 
0.000432 
0.000450 
0.000469 
0.000489 
0.000509 
0.000530 
0.000551 
0.000573 
0.000596 
0.000620 
0.000644 
0.000668 
0.000694 
0.000720 
0.000746 
0.000774 
0.000802 
0.000831 
0.000860 
0.000891 
0.000921 
0.000953 
0.000985 
0.001018 
0.001052 
0.001086 
0.001121 
0.001157 
0.001194 
0.001231 
0.001268 
0.001307 
0.001346 
0.001386 
0.001426 
0.001467 
0.001508 
0.001550 
0.001593 
0.001636 
0.001680 
0.001724 
0.001769 
0.001814 
0.001860 
0.001906 
0.001952 
0.001999 
0.002046 
0.002094 
0.002141 
0.002190 
0.002238 
0.002286 
0.002335 
0.002384 
0.002433 
0.002482 
0.002532 
0.002581 
0.002630 
0.002679 
0.002728 
0.002777 
0.002826 
0.002875 
0.002923 
0.002971 
0.003019 
0.003067 
0.003114 
0.003161 
0.003207 
0.003253 
0.003298 
0.003343 
0.003387 
0.003431 
0.003474 
0.003516 
0.003557 
0.003598 
0.003638 
0.003677 
0.003715 
0.003752 
0.003788 
0.003823 
0.003858 
0.003891 
0.003923 
0.003954 
0.003984 
0.004013 
0.004040 
0.004067 
0.004092 
0.004116 
0.004138 
0.004159 
0.004179 
0.004198 
0.004215 
0.004231 
0.004245 
0.004258 
0.004270 
0.004280 
0.004289 
0.004296 
0.004302 
0.004307 
0.004310 
0.004311 
0.000000 
0.000000 
0.000000 
0.000000 
0.000000 
0.000000 
0.000000 
0.000000 
0.000000 
0.000000 
0.000000 
0.000000 
0.000000 
0.000000 
0.000000 
0.000000 
0.000000 
0.000000 
0.000000 
0.000000 
0.000000 
0.000000 
0.000000 
0.000000 
0.000000 
0.000000 
0.000000 
0.000000 
0.000000 
0.000000 
0.000000 
0.000000 
0.000000 
0.000000 
0.000000 
0.000000 
0.000000 
0.000000 
0.000000 
0.000000 
0.000000 
0.000000 
0.000000 
0.000000 
0.000000 
0.000000 
0.000000 
0.000000 
0.000000 
0.000000 
0.000000 
0.000000 
0.000000 
0.000000 
0.000000 
0.000000 
0.000000 
0.000000 
0.000000 
0.000000 
0.000000 
0.000000 
0.000000 
0.000000 
0.000000 
0.000000 
0.000000 
0.000000 
0.000000 
0.000000 
0.000000 
0.000000 
0.000000 
0.000000 
0.000000 
0.000000 
0.000000 
0.000000 
0.000000 
0.000001 
0.000001 
0.000001 
0.000001 
0.000001 
0.000001 
0.000001 
0.000001 
0.000001 
0.000001 
0.000001 
0.000001 
0.000001 
0.000002 
0.000002 
0.000002 
0.000002 
0.000002 
0.000002 
0.000003 
0.000003 
0.000003 
0.000003 
0.000003 
0.000004 
0.000004 
0.000004 
0.000005 
0.000005 
0.000005 
0.000006 
0.000006 
0.000007 
0.000007 
0.000008 
0.000008 
0.000009 
0.000010 
0.000010 
0.000011 
0.000012 
0.000013 
0.000014 
0.000015 
0.000016 
0.000017 
0.000018 
0.000019 
0.000020 
0.000022 
0.000023 
0.000025 
0.000026 
0.000028 
0.000030 
0.000032 
0.000034 
0.000036 
0.000038 
0.000041 
0.000044 
0.000046 
0.000049 
0.000052 
0.000055 
0.000059 
0.000062 
0.000066 
0.000070 
0.000074 
0.000079 
0.000083 
0.000088 
0.000093 
0.000099 
0.000104 
0.000110 
0.000116 
0.000123 
0.000130 
0.000137 
0.000144 
0.000152 
0.000160 
0.000168 
0.000177 
0.000187 
0.000196 
0.000206 
0.000217 
0.000228 
0.000239 
0.000251 
0.000263 
0.000276 
0.000290 
0.000304 
0.000318 
0.000333 
0.000349 
0.000365 
0.000381 
0.000399 
0.000417 
0.000435 
0.000455 
0.000474 
0.000495 
0.000516 
0.000538 
0.000561 
0.000584 
0.000608 
0.000633 
0.000659 
0.000685 
0.000712 
0.000740 
0.000769 
0.000798 
0.000828 
0.000860 
0.000891 
0.000924 
0.000958 
0.000992 
0.001027 
0.001063 
0.001100 
0.001138 
0.001176 
0.001216 
0.001256 
0.001297 
0.001339 
0.001381 
0.001424 
0.001469 
0.001514 
0.001559 
0.001606 
0.001653 
0.001701 
0.001750 
0.001799 
0.001849 
0.001900 
0.001951 
0.002003 
0.002056 
0.002109 
0.002163 
0.002217 
0.002272 
0.002328 
0.002383 
0.002439 
0.002496 
0.002553 
0.002610 
0.002668 
0.002725 
0.002783 
0.002841 
0.002900 
0.002958 
0.003017 
0.003075 
0.003134 
0.003192 
0.003250 
0.003309 
0.003367 
0.003425 
0.003482 
0.003539 
0.003596 
0.003653 
0.003709 
0.003764 
0.003819 
0.003874 
0.003928 
0.003981 
0.004033 
0.004085 
0.004136 
0.004186 
0.004235 
0.004283 
0.004331 
0.004377 
0.004422 
0.004466 
0.004509 
0.004551 
0.004592 
0.004631 
0.004669 
0.004706 
0.004742 
0.004776 
0.004808 
0.004840 
0.004869 
0.004898 
0.004924 
0.004950 
0.004973 
0.004995 
0.005016 
0.005034 
0.005052 
0.005067 
0.005081 
0.005093 
0.005103 
0.005112 
0.005119 
0.005124 
0.005128 
0.005129 
0.000000 
0.000000 
0.000000 
0.000000 
0.000000 
0.000000 
0.000000 
0.000000 
0.000000 
0.000000 
0.000000 
0.000000 
0.000000 
0.000000 
0.000000 
0.000000 
0.000000 
0.000000 
0.000000 
0.000000 
0.000000 
0.000000 
0.000000 
0.000000 
0.000000 
0.000000 
0.000000 
0.000000 
0.000000 
0.000000 
0.000000 
0.000000 
0.000000 
0.000000 
0.000000 
0.000000 
0.000000 
0.000000 
0.000000 
0.000000 
0.000000 
0.000000 
0.000000 
0.000000 
0.000000 
0.000000 
0.000000 
0.000000 
0.000000 
0.000000 
0.000000 
0.000000 
0.000000 
0.000000 
0.000000 
0.000000 
0.000000 
0.000000 
0.000000 
0.000000 
0.000000 
0.000000 
0.000000 
0.000000 
0.000000 
0.000000 
0.000000 
0.000000 
0.000000 
0.000000 
0.000000 
0.000000 
0.000000 
0.000000 
0.000000 
0.000000 
0.000000 
0.000001 
0.000001 
0.000001 
0.000001 
0.000001 
0.000001 
0.000001 
0.000001 
0.000001 
0.000001 
0.000001 
0.000001 
0.000001 
0.000002 
0.000002 
0.000002 
0.000002 
0.000002 
0.000002 
0.000003 
0.000003 
0.000003 
0.000003 
0.000003 
0.000004 
0.000004 
0.000004 
0.000005 
0.000005 
0.000005 
0.000006 
0.000006 
0.000007 
0.000007 
0.000008 
0.000008 
0.000009 
0.000010 
0.000010 
0.000011 
0.000012 
0.000013 
0.000014 
0.000015 
0.000016 
0.000017 
0.000018 
0.000020 
0.000021 
0.000022 
0.000024 
0.000025 
0.000027 
0.000029 
0.000031 
0.000033 
0.000035 
0.000038 
0.000040 
0.000043 
0.000045 
0.000048 
0.000051 
0.000054 
0.000058 
0.000061 
0.000065 
0.000069 
0.000073 
0.000078 
0.000083 
0.000087 
0.000093 
0.000098 
0.000104 
0.000110 
0.000116 
0.000123 
0.000130 
0.000137 
0.000144 
0.000152 
0.000161 
0.000169 
0.000179 
0.000188 
0.000198 
0.000208 
0.000219 
0.000231 
0.000243 
0.000255 
0.000268 
0.000281 
0.000295 
0.000310 
0.000325 
0.000340 
0.000357 
0.000374 
0.000391 
0.000410 
0.000428 
0.000448 
0.000468 
0.000490 
0.000511 
0.000534 
0.000557 
0.000581 
0.000606 
0.000632 
0.000659 
0.000686 
0.000714 
0.000743 
0.000773 
0.000804 
0.000836 
0.000869 
0.000902 
0.000937 
0.000972 
0.001009 
0.001046 
0.001085 
0.001124 
0.001164 
0.001205 
0.001248 
0.001291 
0.001335 
0.001380 
0.001426 
0.001473 
0.001521 
0.001570 
0.001620 
0.001671 
0.001722 
0.001775 
0.001828 
0.001883 
0.001938 
0.001994 
0.002051 
0.002109 
0.002168 
0.002227 
0.002287 
0.002348 
0.002409 
0.002472 
0.002535 
0.002598 
0.002662 
0.002727 
0.002792 
0.002857 
0.002924 
0.002990 
0.003057 
0.003124 
0.003191 
0.003259 
0.003327 
0.003395 
0.003463 
0.003532 
0.003600 
0.003668 
0.003737 
0.003805 
0.003873 
0.003940 
0.004008 
0.004075 
0.004142 
0.004208 
0.004274 
0.004339 
0.004404 
0.004468 
0.004532 
0.004594 
0.004656 
0.004718 
0.004778 
0.004837 
0.004896 
0.004953 
0.005009 
0.005064 
0.005118 
0.005171 
0.005222 
0.005273 
0.005321 
0.005369 
0.005415 
0.005459 
0.005502 
0.005543 
0.005583 
0.005621 
0.005657 
0.005692 
0.005725 
0.005756 
0.005785 
0.005813 
0.005839 
0.005862 
0.005884 
0.005904 
0.005922 
0.005938 
0.005952 
0.005965 
0.005975 
0.005983 
0.005989 
0.005993 
0.005995 
0.000000 
0.000000 
0.000000 
0.000000 
0.000000 
0.000000 
0.000000 
0.000000 
0.000000 
0.000000 
0.000000 
0.000000 
0.000000 
0.000000 
0.000000 
0.000000 
0.000000 
0.000000 
0.000000 
0.000000 
0.000000 
0.000000 
0.000000 
0.000000 
0.000000 
0.000000 