# vtk DataFile Version 3.0
results.vtk
ASCII
DATASET RECTILINEAR_GRID
DIMENSIONS 301 301 1
X_COORDINATES 301 double
0.000000 0.003333 0.006667 0.010000 0.013333 0.016667 0.020000 0.023333 0.026667 0.030000 0.033333 0.036667 0.040000 0.043333 0.046667 0.050000 0.053333 0.056667 0.060000 0.063333 0.066667 0.070000 0.073333 0.076667 0.080000 0.083333 0.086667 0.090000 0.093333 0.096667 0.100000 0.103333 0.106667 0.110000 0.113333 0.116667 0.120000 0.123333 0.126667 0.130000 0.133333 0.136667 0.140000 0.143333 0.146667 0.150000 0.153333 0.156667 0.160000 0.163333 0.166667 0.170000 0.173333 0.176667 0.180000 0.183333 0.186667 0.190000 0.193333 0.196667 0.200000 0.203333 0.206667 0.210000 0.213333 0.216667 0.220000 0.223333 0.226667 0.230000 0.233333 0.236667 0.240000 0.243333 0.246667 0.250000 0.253333 0.256667 0.260000 0.263333 0.266667 0.270000 0.273333 0.276667 0.280000 0.283333 0.286667 0.290000 0.293333 0.296667 0.300000 0.303333 0.306667 0.310000 0.313333 0.316667 0.320000 0.323333 0.326667 0.330000 0.333333 0.336667 0.340000 0.343333 0.346667 0.350000 0.353333 0.356667 0.360000 0.363333 0.366667 0.370000 0.373333 0.376667 0.380000 0.383333 0.386667 0.390000 0.393333 0.396667 0.400000 0.403333 0.406667 0.410000 0.413333 0.416667 0.420000 0.423333 0.426667 0.430000 0.433333 0.436667 0.440000 0.443333 0.446667 0.450000 0.453333 0.456667 0.460000 0.463333 0.466667 0.470000 0.473333 0.476667 0.480000 0.483333 0.486667 0.490000 0.493333 0.496667 0.500000 0.503333 0.506667 0.510000 0.513333 0.516667 0.520000 0.523333 0.526667 0.530000 0.533333 0.536667 0.540000 0.543333 0.546667 0.550000 0.553333 0.556667 0.560000 0.563333 0.566667 0.570000 0.573333 0.576667 0.580000 0.583333 0.586667 0.590000 0.593333 0.596667 0.600000 0.603333 0.606667 0.610000 0.613333 0.616667 0.620000 0.623333 0.626667 0.630000 0.633333 0.636667 0.640000 0.643333 0.646667 0.650000 0.653333 0.656667 0.660000 0.663333 0.666667 0.670000 0.673333 0.676667 0.680000 0.683333 0.686667 0.690000 0.693333 0.696667 0.700000 0.703333 0.706667 0.710000 0.713333 0.716667 0.720000 0.723333 0.726667 0.730000 0.733333 0.736667 0.740000 0.743333 0.746667 0.750000 0.753333 0.756667 0.760000 0.763333 0.766667 0.770000 0.773333 0.776667 0.780000 0.783333 0.786667 0.790000 0.793333 0.796667 0.800000 0.803333 0.806667 0.810000 0.813333 0.816667 0.820000 0.823333 0.826667 0.830000 0.833333 0.836667 0.840000 0.843333 0.846667 0.850000 0.853333 0.856667 0.860000 0.863333 0.866667 0.870000 0.873333 0.876667 0.880000 0.883333 0.886667 0.890000 0.893333 0.896667 0.900000 0.903333 0.906667 0.910000 0.913333 0.916667 0.920000 0.923333 0.926667 0.930000 0.933333 0.936667 0.940000 0.943333 0.946667 0.950000 0.953333 0.956667 0.960000 0.963333 0.966667 0.970000 0.973333 0.976667 0.980000 0.983333 0.986667 0.990000 0.993333 0.996667 1.000000 
Y_COORDINATES 301 double
0.000000 0.003333 0.006667 0.010000 0.013333 0.016667 0.020000 0.023333 0.026667 0.030000 0.033333 0.036667 0.040000 0.043333 0.046667 0.050000 0.053333 0.056667 0.060000 0.063333 0.066667 0.070000 0.073333 0.076667 0.080000 0.083333 0.086667 0.090000 0.093333 0.096667 0.100000 0.103333 0.106667 0.110000 0.113333 0.116667 0.120000 0.123333 0.126667 0.130000 0.133333 0.136667 0.140000 0.143333 0.146667 0.150000 0.153333 0.156667 0.160000 0.163333 0.166667 0.170000 0.173333 0.176667 0.180000 0.183333 0.186667 0.190000 0.193333 0.196667 0.200000 0.203333 0.206667 0.210000 0.213333 0.216667 0.220000 0.223333 0.226667 0.230000 0.233333 0.236667 0.240000 0.243333 0.246667 0.250000 0.253333 0.256667 0.260000 0.263333 0.266667 0.270000 0.273333 0.276667 0.280000 0.283333 0.286667 0.290000 0.293333 0.296667 0.300000 0.303333 0.306667 0.310000 0.313333 0.316667 0.320000 0.323333 0.326667 0.330000 0.333333 0.336667 0.340000 0.343333 0.346667 0.350000 0.353333 0.356667 0.360000 0.363333 0.366667 0.370000 0.373333 0.376667 0.380000 0.383333 0.386667 0.390000 0.393333 0.396667 0.400000 0.403333 0.406667 0.410000 0.413333 0.416667 0.420000 0.423333 0.426667 0.430000 0.433333 0.436667 0.440000 0.443333 0.446667 0.450000 0.453333 0.456667 0.460000 0.463333 0.466667 0.470000 0.473333 0.476667 0.480000 0.483333 0.486667 0.490000 0.493333 0.496667 0.500000 0.503333 0.506667 0.510000 0.513333 0.516667 0.520000 0.523333 0.526667 0.530000 0.533333 0.536667 0.540000 0.543333 0.546667 0.550000 0.553333 0.556667 0.560000 0.563333 0.566667 0.570000 0.573333 0.576667 0.580000 0.583333 0.586667 0.590000 0.593333 0.596667 0.600000 0.603333 0.606667 0.610000 0.613333 0.616667 0.620000 0.623333 0.626667 0.630000 0.633333 0.636667 0.640000 0.643333 0.646667 0.650000 0.653333 0.656667 0.660000 0.663333 0.666667 0.670000 0.673333 0.676667 0.680000 0.683333 0.686667 0.690000 0.693333 0.696667 0.700000 0.703333 0.706667 0.710000 0.713333 0.716667 0.720000 0.723333 0.726667 0.730000 0.733333 0.736667 0.740000 0.743333 0.746667 0.750000 0.753333 0.756667 0.760000 0.763333 0.766667 0.770000 0.773333 0.776667 0.780000 0.783333 0.786667 0.790000 0.793333 0.796667 0.800000 0.803333 0.806667 0.810000 0.813333 0.816667 0.820000 0.823333 0.826667 0.830000 0.833333 0.836667 0.840000 0.843333 0.846667 0.850000 0.853333 0.856667 0.860000 0.863333 0.866667 0.870000 0.873333 0.876667 0.880000 0.883333 0.886667 0.890000 0.893333 0.896667 0.900000 0.903333 0.906667 0.910000 0.913333 0.916667 0.920000 0.923333 0.926667 0.930000 0.933333 0.936667 0.940000 0.943333 0.946667 0.950000 0.953333 0.956667 0.960000 0.963333 0.966667 0.970000 0.973333 0.976667 0.980000 0.983333 0.986667 0.990000 0.993333 0.996667 1.000000 
Z_COORDINATES 1 double
0
POINT_DATA 90601 
FIELD FieldData 1 
Concentração 1 90601 double 
0.000000 
0.000000 
0.000000 
0.000000 
0.000000 
0.000000 
0.000000 
0.000000 
0.000000 
0.000000 
0.000000 
0.000000 
0.000000 
0.000000 
0.000000 
0.000000 
0.000000 
0.000000 
0.000000 
0.000000 
0.000000 
0.000000 
0.000000 
0.000000 
0.000000 
0.000000 
0.000000 
0.000000 
0.000000 
0.000000 
0.000000 
0.000000 
0.000000 
0.000000 
0.000000 
0.000000 
0.000000 
0.000000 
0.000000 
0.000000 
0.000000 
0.000000 
0.000000 
0.000000 
0.000000 
0.000000 
0.000000 
0.000000 
0.000000 
0.000000 
0.000000 
0.000000 
0.000000 
0.000000 
0.000000 
0.000000 
0.000000 
0.000000 
0.000000 
0.000000 
0.000000 
0.000000 
0.000000 
0.000000 
0.000000 
0.000000 
0.000000 
0.000000 
0.000000 
0.000000 
0.000000 
0.000000 
0.000000 
0.000000 
0.000000 
0.000000 
0.000000 
0.000000 
0.000000 
0.000000 
0.000000 
0.000000 
0.000000 
0.000000 
0.000000 
0.000000 
0.000000 
0.000000 
0.000000 
0.000000 
0.000000 
0.000000 
0.000000 
0.000000 
0.000001 
0.000001 
0.000001 
0.000001 
0.000001 
0.000001 
0.000001 
0.000001 
0.000001 
0.000001 
0.000001 
0.000001 
0.000001 
0.000001 
0.000001 
0.000002 
0.000002 
0.000002 
0.000002 
0.000002 
0.000002 
0.000002 
0.000003 
0.000003 
0.000003 
0.000003 
0.000003 
0.000004 
0.000004 
0.000004 
0.000004 
0.000005 
0.000005 
0.000005 
0.000006 
0.000006 
0.000007 
0.000007 
0.000007 
0.000008 
0.000008 
0.000009 
0.000009 
0.000010 
0.000011 
0.000011 
0.000012 
0.000013 
0.000014 
0.000014 
0.000015 
0.000016 
0.000017 
0.000018 
0.000019 
0.000020 
0.000021 
0.000023 
0.000024 
0.000025 
0.000027 
0.000028 
0.000030 
0.000031 
0.000033 
0.000035 
0.000037 
0.000039 
0.000041 
0.000043 
0.000045 
0.000047 
0.000050 
0.000052 
0.000055 
0.000057 
0.000060 
0.000063 
0.000066 
0.000069 
0.000073 
0.000076 
0.000080 
0.000083 
0.000087 
0.000091 
0.000095 
0.000099 
0.000104 
0.000108 
0.000113 
0.000118 
0.000123 
0.000128 
0.000133 
0.000138 
0.000144 
0.000150 
0.000156 
0.000162 
0.000168 
0.000175 
0.000181 
0.000188 
0.000195 
0.000202 
0.000210 
0.000217 
0.000225 
0.000233 
0.000241 
0.000250 
0.000258 
0.000267 
0.000276 
0.000285 
0.000294 
0.000303 
0.000313 
0.000323 
0.000333 
0.000343 
0.000353 
0.000364 
0.000374 
0.000385 
0.000396 
0.000407 
0.000419 
0.000430 
0.000442 
0.000453 
0.000465 
0.000477 
0.000489 
0.000502 
0.000514 
0.000526 
0.000539 
0.000552 
0.000564 
0.000577 
0.000590 
0.000603 
0.000616 
0.000629 
0.000643 
0.000656 
0.000669 
0.000682 
0.000696 
0.000709 
0.000722 
0.000735 
0.000749 
0.000762 
0.000775 
0.000788 
0.000801 
0.000814 
0.000827 
0.000840 
0.000852 
0.000865 
0.000877 
0.000890 
0.000902 
0.000914 
0.000926 
0.000938 
0.000949 
0.000961 
0.000972 
0.000983 
0.000994 
0.001004 
0.001015 
0.001025 
0.001034 
0.001044 
0.001053 
0.001062 
0.001071 
0.001080 
0.001088 
0.001096 
0.001103 
0.001110 
0.001117 
0.001124 
0.001130 
0.001136 
0.001142 
0.001147 
0.001152 
0.001156 
0.001161 
0.001164 
0.001168 
0.001171 
0.001174 
0.001176 
0.001178 
0.001179 
0.001180 
0.001181 
0.001182 
0.000000 
0.000000 
0.000000 
0.000000 
0.000000 
0.000000 
0.000000 
0.000000 
0.000000 
0.000000 
0.000000 
0.000000 
0.000000 
0.000000 
0.000000 
0.000000 
0.000000 
0.000000 
0.000000 
0.000000 
0.000000 
0.000000 
0.000000 
0.000000 
0.000000 
0.000000 
0.000000 
0.000000 
0.000000 
0.000000 
0.000000 
0.000000 
0.000000 
0.000000 
0.000000 
0.000000 
0.000000 
0.000000 
0.000000 
0.000000 
0.000000 
0.000000 
0.000000 
0.000000 
0.000000 
0.000000 
0.000000 
0.000000 
0.000000 
0.000000 
0.000000 
0.000000 
0.000000 
0.000000 
0.000000 
0.000000 
0.000000 
0.000000 
0.000000 
0.000000 
0.000000 
0.000000 
0.000000 
0.000000 
0.000000 
0.000000 
0.000000 
0.000000 
0.000000 
0.000000 
0.000000 
0.000000 
0.000000 
0.000000 
0.000000 
0.000000 
0.000000 
0.000000 
0.000000 
0.000000 
0.000000 
0.000000 
0.000000 
0.000000 
0.000000 
0.000001 
0.000001 
0.000001 
0.000001 
0.000001 
0.000001 
0.000001 
0.000001 
0.000001 
0.000001 
0.000001 
0.000001 
0.000001 
0.000001 
0.000002 
0.000002 
0.000002 
0.000002 
0.000002 
0.000002 
0.000002 
0.000003 
0.000003 
0.000003 
0.000003 
0.000003 
0.000004 
0.000004 
0.000004 
0.000005 
0.000005 
0.000005 
0.000006 
0.000006 
0.000006 
0.000007 
0.000007 
0.000008 
0.000008 
0.000009 
0.000009 
0.000010 
0.000011 
0.000012 
0.000012 
0.000013 
0.000014 
0.000015 
0.000016 
0.000017 
0.000018 
0.000019 
0.000020 
0.000022 
0.000023 
0.000024 
0.000026 
0.000027 
0.000029 
0.000031 
0.000033 
0.000034 
0.000036 
0.000039 
0.000041 
0.000043 
0.000046 
0.000048 
0.000051 
0.000054 
0.000057 
0.000060 
0.000063 
0.000067 
0.000070 
0.000074 
0.000078 
0.000082 
0.000086 
0.000090 
0.000095 
0.000100 
0.000105 
0.000110 
0.000116 
0.000121 
0.000127 
0.000133 
0.000140 
0.000146 
0.000153 
0.000160 
0.000167 
0.000175 
0.000183 
0.000191 
0.000200 
0.000208 
0.000217 
0.000227 
0.000236 
0.000246 
0.000257 
0.000267 
0.000278 
0.000290 
0.000301 
0.000313 
0.000326 
0.000338 
0.000351 
0.000365 
0.000378 
0.000393 
0.000407 
0.000422 
0.000437 
0.000453 
0.000469 
0.000485 
0.000502 
0.000519 
0.000536 
0.000554 
0.000572 
0.000591 
0.000610 
0.000629 
0.000649 
0.000669 
0.000689 
0.000710 
0.000731 
0.000752 
0.000774 
0.000796 
0.000818 
0.000841 
0.000864 
0.000887 
0.000911 
0.000935 
0.000959 
0.000983 
0.001008 
0.001033 
0.001058 
0.001083 
0.001109 
0.001134 
0.001160 
0.001186 
0.001212 
0.001238 
0.001265 
0.001291 
0.001318 
0.001344 
0.001371 
0.001397 
0.001424 
0.001451 
0.001477 
0.001504 
0.001530 
0.001557 
0.001583 
0.001609 
0.001635 
0.001661 
0.001687 
0.001712 
0.001738 
0.001763 
0.001787 
0.001812 
0.001836 
0.001860 
0.001884 
0.001907 
0.001930 
0.001952 
0.001974 
0.001996 
0.002017 
0.002038 
0.002058 
0.002078 
0.002097 
0.002115 
0.002134 
0.002151 
0.002168 
0.002185 
0.002200 
0.002216 
0.002230 
0.002244 
0.002257 
0.002270 
0.002282 
0.002293 
0.002303 
0.002313 
0.002322 
0.002331 
0.002338 
0.002345 
0.002351 
0.002357 
0.002361 
0.002365 
0.002368 
0.002370 
0.002372 
0.002373 
0.000000 
0.000000 
0.000000 
0.000000 
0.000000 
0.000000 
0.000000 
0.000000 
0.000000 
0.000000 
0.000000 
0.000000 
0.000000 
0.000000 
0.000000 
0.000000 
0.000000 
0.000000 
0.000000 
0.000000 
0.000000 
0.000000 
0.000000 
0.000000 
0.000000 
0.000000 
0.000000 
0.000000 
0.000000 
0.000000 
0.000000 
0.000000 
0.000000 
0.000000 
0.000000 
0.000000 
0.000000 
0.000000 
0.000000 
0.000000 
0.000000 
0.000000 
0.000000 
0.000000 
0.000000 
0.000000 
0.000000 
0.000000 
0.000000 
0.000000 
0.000000 
0.000000 
0.000000 
0.000000 
0.000000 
0.000000 
0.000000 
0.000000 
0.000000 
0.000000 
0.000000 
0.000000 
0.000000 
0.000000 
0.000000 
0.000000 
0.000000 
0.000000 
0.000000 
0.000000 
0.000000 
0.000000 
0.000000 
0.000000 
0.000000 
0.000000 
0.000000 
0.000000 
0.000000 
0.000000 
0.000001 
0.000001 
0.000001 
0.000001 
0.000001 
0.000001 
0.000001 
0.000001 
0.000001 
0.000001 
0.000001 
0.000001 
0.000001 
0.000001 
0.000002 
0.000002 
0.000002 
0.000002 
0.000002 
0.000002 
0.000002 
0.000003 
0.000003 
0.000003 
0.000003 
0.000004 
0.000004 
0.000004 
0.000004 
0.000005 
0.000005 
0.000006 
0.000006 
0.000006 
0.000007 
0.000007 
0.000008 
0.000008 
0.000009 
0.000010 
0.000010 
0.000011 
0.000012 
0.000013 
0.000013 
0.000014 
0.000015 
0.000016 
0.000017 
0.000019 
0.000020 
0.000021 
0.000023 
0.000024 
0.000026 
0.000027 
0.000029 
0.000031 
0.000033 
0.000035 
0.000037 
0.000039 
0.000041 
0.000044 
0.000047 
0.000049 
0.000052 
0.000055 
0.000058 
0.000062 
0.000065 
0.000069 
0.000073 
0.000077 
0.000081 
0.000086 
0.000091 
0.000096 
0.000101 
0.000106 
0.000112 
0.000118 
0.000124 
0.000130 
0.000137 
0.000144 
0.000151 
0.000159 
0.000167 
0.000175 
0.000183 
0.000192 
0.000202 
0.000211 
0.000221 
0.000232 
0.000242 
0.000253 
0.000265 
0.000277 
0.000289 
0.000302 
0.000315 
0.000329 
0.000343 
0.000358 
0.000373 
0.000389 
0.000405 
0.000421 
0.000438 
0.000456 
0.000474 
0.000493 
0.000512 
0.000532 
0.000552 
0.000573 
0.000594 
0.000616 
0.000638 
0.000661 
0.000685 
0.000709 
0.000734 
0.000759 
0.000785 
0.000811 
0.000838 
0.000866 
0.000894 
0.000922 
0.000952 
0.000981 
0.001011 
0.001042 
0.001074 
0.001105 
0.001138 
0.001171 
0.001204 
0.001238 
0.001272 
0.001307 
0.001342 
0.001377 
0.001414 
0.001450 
0.001487 
0.001524 
0.001561 
0.001599 
0.001637 
0.001676 
0.001715 
0.001754 
0.001793 
0.001832 
0.001872 
0.001912 
0.001951 
0.001991 
0.002032 
0.002072 
0.002112 
0.002152 
0.002192 
0.002232 
0.002272 
0.002312 
0.002352 
0.002392 
0.002431 
0.002471 
0.002510 
0.002549 
0.002587 
0.002625 
0.002663 
0.002700 
0.002737 
0.002774 
0.002810 
0.002845 
0.002880 
0.002915 
0.002949 
0.002982 
0.003015 
0.003047 
0.003078 
0.003108 
0.003138 
0.003167 
0.003195 
0.003223 
0.003249 
0.003275 
0.003299 
0.003323 
0.003346 
0.003368 
0.003389 
0.003409 
0.003428 
0.003446 
0.003463 
0.003479 
0.003493 
0.003507 
0.003520 
0.003531 
0.003541 
0.003551 
0.003559 
0.003566 
0.003572 
0.003576 
0.003580 
0.003582 
0.003583 
0.000000 
0.000000 
0.000000 
0.000000 
0.000000 
0.000000 
0.000000 
0.000000 
0.000000 
0.000000 
0.000000 
0.000000 
0.000000 
0.000000 
0.000000 
0.000000 
0.000000 
0.000000 
0.000000 
0.000000 
0.000000 
0.000000 
0.000000 
0.000000 
0.000000 
0.000000 
0.000000 
0.000000 
0.000000 
0.000000 
0.000000 
0.000000 
0.000000 
0.000000 
0.000000 
0.000000 
0.000000 
0.000000 
0.000000 
0.000000 
0.000000 
0.000000 
0.000000 
0.000000 
0.000000 
0.000000 
0.000000 
0.000000 
0.000000 
0.000000 
0.000000 
0.000000 
0.000000 
0.000000 
0.000000 
0.000000 
0.000000 
0.000000 
0.000000 
0.000000 
0.000000 
0.000000 
0.000000 
0.000000 
0.000000 
0.000000 
0.000000 
0.000000 
0.000000 
0.000000 
0.000000 
0.000000 
0.000000 
0.000000 
0.000000 
0.000000 
0.000000 
0.000001 
0.000001 
0.000001 
0.000001 
0.000001 
0.000001 
0.000001 
0.000001 
0.000001 
0.000001 
0.000001 
0.000001 
0.000001 
0.000002 
0.000002 
0.000002 
0.000002 
0.000002 
0.000002 
0.000002 
0.000003 
0.000003 
0.000003 
0.000003 
0.000004 
0.000004 
0.000004 
0.000004 
0.000005 
0.000005 
0.000006 
0.000006 
0.000006 
0.000007 
0.000007 
0.000008 
0.000009 
0.000009 
0.000010 
0.000011 
0.000011 
0.000012 
0.000013 
0.000014 
0.000015 
0.000016 
0.000017 
0.000018 
0.000019 
0.000021 
0.000022 
0.000024 
0.000025 
0.000027 
0.000029 
0.000030 
0.000032 
0.000035 
0.000037 
0.000039 
0.000041 
0.000044 
0.000047 
0.000050 
0.000053 
0.000056 
0.000059 
0.000063 
0.000067 
0.000071 
0.000075 
0.000079 
0.000084 
0.000088 
0.000093 
0.000099 
0.000104 
0.000110 
0.000116 
0.000122 
0.000129 
0.000136 
0.000143 
0.000151 
0.000159 
0.000167 
0.000176 
0.000185 
0.000194 
0.000204 
0.000214 
0.000225 
0.000236 
0.000248 
0.000260 
0.000272 
0.000285 
0.000299 
0.000313 
0.000327 
0.000342 
0.000358 
0.000374 
0.000391 
0.000408 
0.000426 
0.000444 
0.000463 
0.000483 
0.000504 
0.000525 
0.000546 
0.000569 
0.000592 
0.000615 
0.000640 
0.000665 
0.000691 
0.000717 
0.000745 
0.000773 
0.000802 
0.000831 
0.000861 
0.000892 
0.000924 
0.000957 
0.000990 
0.001024 
0.001059 
0.001094 
0.001131 
0.001168 
0.001206 
0.001244 
0.001283 
0.001323 
0.001364 
0.001406 
0.001448 
0.001491 
0.001534 
0.001579 
0.001623 
0.001669 
0.001715 
0.001762 
0.001809 
0.001857 
0.001906 
0.001955 
0.002004 
0.002054 
0.002105 
0.002156 
0.002207 
0.002259 
0.002311 
0.002363 
0.002416 
0.002469 
0.002522 
0.002576 
0.002630 
0.002683 
0.002737 
0.002791 
0.002845 
0.002899 
0.002954 
0.003007 
0.003061 
0.003115 
0.003169 
0.003222 
0.003275 
0.003328 
0.003380 
0.003433 
0.003484 
0.003536 
0.003586 
0.003637 
0.003686 
0.003735 
0.003784 
0.003832 
0.003879 
0.003925 
0.003970 
0.004015 
0.004059 
0.004102 
0.004144 
0.004185 
0.004225 
0.004264 
0.004301 
0.004338 
0.004374 
0.004408 
0.004441 
0.004473 
0.004504 
0.004534 
0.004562 
0.004589 
0.004614 
0.004638 
0.004661 
0.004682 
0.004702 
0.004720 
0.004737 
0.004753 
0.004766 
0.004779 
0.004790 
0.004799 
0.004807 
0.004813 
0.004818 
0.004821 
0.004822 
0.000000 
0.000000 
0.000000 
0.000000 
0.000000 
0.000000 
0.000000 
0.000000 
0.000000 
0.000000 
0.000000 
0.000000 
0.000000 
0.000000 
0.000000 
0.000000 
0.000000 
0.000000 
0.000000 
0.000000 
0.000000 
0.000000 
0.000000 
0.000000 
0.000000 
0.000000 
0.000000 
0.000000 
0.000000 
0.000000 
0.000000 
0.000000 
0.000000 
0.000000 
0.000000 
0.000000 
0.000000 
0.000000 
0.000000 
0.000000 
0.000000 
0.000000 
0.000000 
0.000000 
0.000000 
0.000000 
0.000000 
0.000000 
0.000000 
0.000000 
0.000000 
0.000000 
0.000000 
0.000000 
0.000000 
0.000000 
0.000000 
0.000000 
0.000000 
0.000000 
0.000000 
0.000000 
0.000000 
0.000000 
0.000000 
0.000000 
0.000000 
0.000000 
0.000000 
0.000000 
0.000000 
0.000000 
0.000000 
0.000000 
0.000001 
0.000001 
0.000001 
0.000001 
0.000001 
0.000001 
0.000001 
0.000001 
0.000001 
0.000001 
0.000001 
0.000001 
0.000001 
0.000002 
0.000002 
0.000002 
0.000002 
0.000002 
0.000002 
0.000002 
0.000003 
0.000003 
0.000003 
0.000003 
0.000004 
0.000004 
0.000004 
0.000005 
0.000005 
0.000005 
0.000006 
0.000006 
0.000007 
0.000007 
0.000008 
0.000008 
0.000009 
0.000009 
0.000010 
0.000011 
0.000012 
0.000013 
0.000013 
0.000014 
0.000015 
0.000017 
0.000018 
0.000019 
0.000020 
0.000022 
0.000023 
0.000025 
0.000026 
0.000028 
0.000030 
0.000032 
0.000034 
0.000036 
0.000039 
0.000041 
0.000044 
0.000047 
0.000050 
0.000053 
0.000056 
0.000060 
0.000063 
0.000067 
0.000071 
0.000075 
0.000080 
0.000085 
0.000090 
0.000095 
0.000100 
0.000106 
0.000112 
0.000119 
0.000125 
0.000133 
0.000140 
0.000148 
0.000156 
0.000164 
0.000173 
0.000182 
0.000192 
0.000202 
0.000213 
0.000224 
0.000235 
0.000247 
0.000260 
0.000273 
0.000286 
0.000300 
0.000315 
0.000330 
0.000346 
0.000362 
0.000380 
0.000397 
0.000416 
0.000435 
0.000455 
0.000475 
0.000496 
0.000518 
0.000541 
0.000564 
0.000589 
0.000614 
0.000640 
0.000666 
0.000694 
0.000722 
0.000751 
0.000781 
0.000812 
0.000844 
0.000877 
0.000911 
0.000945 
0.000981 
0.001018 
0.001055 
0.001093 
0.001133 
0.001173 
0.001214 
0.001256 
0.001300 
0.001344 
0.001389 
0.001435 
0.001482 
0.001530 
0.001578 
0.001628 
0.001679 
0.001731 
0.001783 
0.001836 
0.001891 
0.001946 
0.002002 
0.002059 
0.002116 
0.002175 
0.002234 
0.002294 
0.002355 
0.002416 
0.002478 
0.002541 
0.002604 
0.002668 
0.002732 
0.002797 
0.002863 
0.002929 
0.002995 
0.003062 
0.003129 
0.003196 
0.003264 
0.003332 
0.003400 
0.003468 
0.003536 
0.003604 
0.003673 
0.003741 
0.003809 
0.003877 
0.003945 
0.004013 
0.004080 
0.004147 
0.004214 
0.004280 
0.004346 
0.004412 
0.004476 
0.004540 
0.004604 
0.004667 
0.004729 
0.004790 
0.004850 
0.004910 
0.004968 
0.005025 
0.005082 
0.005137 
0.005191 
0.005244 
0.005296 
0.005346 
0.005395 
0.005443 
0.005489 
0.005534 
0.005578 
0.005620 
0.005660 
0.005699 
0.005736 
0.005772 
0.005805 
0.005838 
0.005868 
0.005897 
0.005923 
0.005948 
0.005972 
0.005993 
0.006012 
0.006030 
0.006045 
0.006059 
0.006071 
0.006081 
0.006089 
0.006095 
0.006098 
0.006100 
0.000000 
0.000000 
0.000000 
0.000000 
0.000000 
0.000000 
0.000000 
0.000000 
0.000000 
0.000000 
0.000000 
0.000000 
0.000000 
0.000000 
0.000000 
0.000000 
0.000000 
0.000000 
0.000000 
0.000000 
0.000000 
0.000000 
0.000000 
0.000000 
0.000000 
0.000000 
0.000000 
0.000000 
0.000000 
0.000000 
0.000000 
0.000000 
0.000000 
0.000000 
0.000000 
0.000000 
0.000000 
0.000000 
0.000000 
0.000000 
0.000000 
0.000000 
0.000000 
0.000000 
0.000000 
0.000000 
0.000000 
0.000000 
0.000000 
0.000000 
0.000000 
0.000000 
0.000000 
0.000000 
0.000000 
0.000000 
0.000000 
0.000000 
0.000000 
0.000000 
0.000000 
0.000000 
0.000000 
0.000000 
0.000000 
0.000000 
0.000000 
0.000000 
0.000000 
0.000000 
0.000000 
0.000000 
0.000001 
0.000001 
0.000001 
0.000001 
0.000001 
0.000001 
0.000001 
0.000001 
0.000001 
0.000001 
0.000001 
0.000001 
0.000001 
0.000002 
0.000002 
0.000002 
0.000002 
0.000002 
0.000002 
0.000003 
0.000003 
0.000003 
0.000003 
0.000004 
0.000004 
0.000004 
0.000004 
0.000005 
0.000005 
0.000006 
0.000006 
0.000006 
0.000007 
0.000008 
0.000008 
0.000009 
0.000009 
0.000010 
0.000011 
0.000012 
0.000012 
0.000013 
0.000014 
0.000015 
0.000017 
0.000018 
0.000019 
0.000020 
0.000022 
0.000023 
0.000025 
0.000027 
0.000028 
0.000030 
0.000032 
0.000035 
0.000037 
0.000039 
0.000042 
0.000045 
0.000047 
0.000051 
0.000054 
0.000057 
0.000061 
0.000065 
0.000069 
0.000073 
0.000077 
0.000082 
0.000087 
0.000092 
0.000098 
0.000104 
0.000110 
0.000116 
0.000123 
0.000130 
0.000138 
0.000145 
0.000154 
0.000162 
0.000171 
0.000181 
0.000191 
0.000201 
0.000212 
0.000223 
0.000235 
0.000247 
0.000260 
0.000274 
0.000288 
0.000303 
0.000318 
0.000334 
0.000350 
0.000368 
0.000385 
0.000404 
0.000424 
0.000444 
0.000465 
0.000486 
0.000509 
0.000532 
0.000556 
0.000581 
0.000607 
0.000634 
0.000662 
0.000691 
0.000720 
0.000751 
0.000782 
0.000815 
0.000849 
0.000883 
0.000919 
0.000956 
0.000994 
0.001033 
0.001073 
0.001114 
0.001156 
0.001199 
0.001244 
0.001290 
0.001337 
0.001385 
0.001434 
0.001484 
0.001536 
0.001588 
0.001642 
0.001697 
0.001753 
0.001810 
0.001869 
0.001928 
0.001989 
0.002051 
0.002114 
0.002178 
0.002243 
0.002309 
0.002376 
0.002445 
0.002514 
0.002584 
0.002655 
0.002728 
0.002801 
0.002874 
0.002949 
0.003025 
0.003101 
0.003178 
0.003256 
0.003334 
0.003414 
0.003493 
0.003573 
0.003654 
0.003735 
0.003817 
0.003899 
0.003981 
0.004064 
0.004147 
0.004229 
0.004313 
0.004396 
0.004479 
0.004562 
0.004645 
0.004728 
0.004810 
0.004892 
0.004974 
0.005056 
0.005137 
0.005217 
0.005297 
0.005377 
0.005455 
0.005533 
0.005610 
0.005687 
0.005762 
0.005836 
0.005909 
0.005982 
0.006053 
0.006122 
0.006191 
0.006258 
0.006324 
0.006388 
0.006451 
0.006512 
0.006571 
0.006629 
0.006686 
0.006740 
0.006793 
0.006844 
0.006893 
0.006940 
0.006985 
0.007028 
0.007069 
0.007108 
0.007145 
0.007180 
0.007212 
0.007243 
0.007271 
0.007297 
0.007320 
0.007341 
0.007360 
0.007377 
0.007391 
0.007403 
0.007413 
0.007420 
0.007425 
0.007427 
0.000000 
0.000000 
0.000000 
0.000000 
0.000000 
0.000000 
0.000000 
0.000000 
0.000000 
0.000000 
0.000000 
0.000000 
0.000000 
0.000000 
0.000000 
0.000000 
0.000000 
0.000000 
0.000000 
0.000000 
0.000000 
0.000000 
0.000000 
0.000000 
0.000000 
0.000000 
0.000000 
0.000000 
0.000000 
0.000000 
0.000000 
0.000000 
0.000000 
0.000000 
0.000000 
0.000000 
0.000000 
0.000000 
0.000000 
0.000000 
0.000000 
0.000000 
0.000000 
0.000000 
0.000000 
0.000000 
0.000000 
0.000000 
0.000000 
0.000000 
0.000000 
0.000000 
0.000000 
0.000000 
0.000000 
0.000000 
0.000000 
0.000000 
0.000000 
0.000000 
0.000000 
0.000000 
0.000000 
0.000000 
0.000000 
0.000000 
0.000000 
0.000000 
0.000000 
0.000000 
0.000001 
0.000001 
0.000001 
0.000001 
0.000001 
0.000001 
0.000001 
0.000001 
0.000001 
0.000001 
0.000001 
0.000001 
0.000001 
0.000002 
0.000002 
0.000002 
0.000002 
0.000002 
0.000002 
0.000003 
0.000003 
0.000003 
0.000003 
0.000004 
0.000004 
0.000004 
0.000005 
0.000005 
0.000005 
0.000006 
0.000006 
0.000007 
0.000007 
0.000008 
0.000008 
0.000009 
0.000010 
0.000010 
0.000011 
0.000012 
0.000013 
0.000014 
0.000015 
0.000016 
0.000017 
0.000018 
0.000020 
0.000021 
0.000023 
0.000024 
0.000026 
0.000028 
0.000030 
0.000032 
0.000034 
0.000036 
0.000039 
0.000041 
0.000044 
0.000047 
0.000050 
0.000053 
0.000057 
0.000060 
0.000064 
0.000068 
0.000073 
0.000077 
0.000082 
0.000087 
0.000093 
0.000098 
0.000104 
0.000110 
0.000117 
0.000124 
0.000131 
0.000139 
0.000147 
0.000156 
0.000164 
0.000174 
0.000184 
0.000194 
0.000205 
0.000216 
0.000228 
0.000240 
0.000253 
0.000267 
0.000281 
0.000296 
0.000311 
0.000327 
0.000344 
0.000361 
0.000380 
0.000399 
0.000418 
0.000439 
0.000460 
0.000483 
0.000506 
0.000530 
0.000555 
0.000580 
0.000607 
0.000635 
0.000664 
0.000694 
0.000725 
0.000757 
0.000790 
0.000824 
0.000859 
0.000896 
0.000933 
0.000972 
0.001012 
0.001054 
0.001096 
0.001140 
0.001185 
0.001232 
0.001279 
0.001328 
0.001379 
0.001430 
0.001483 
0.001538 
0.001593 
0.001651 
0.001709 
0.001769 
0.001830 
0.001893 
0.001957 
0.002022 
0.002089 
0.002157 
0.002227 
0.002297 
0.002370 
0.002443 
0.002518 
0.002594 
0.002671 
0.002750 
0.002830 
0.002911 
0.002993 
0.003077 
0.003161 
0.003247 
0.003334 
0.003421 
0.003510 
0.003600 
0.003691 
0.003782 
0.003874 
0.003967 
0.004061 
0.004156 
0.004251 
0.004347 
0.004443 
0.004540 
0.004637 
0.004734 
0.004832 
0.004930 
0.005029 
0.005127 
0.005226 
0.005324 
0.005423 
0.005521 
0.005619 
0.005717 
0.005814 
0.005911 
0.006008 
0.006104 
0.006199 
0.006294 
0.006388 
0.006481 
0.006573 
0.006664 
0.006754 
0.006844 
0.006931 
0.007018 
0.007103 
0.007187 
0.007270 
0.007351 
0.007430 
0.007508 
0.007584 
0.007658 
0.007731 
0.007801 
0.007870 
0.007936 
0.008001 
0.008063 
0.008123 
0.008181 
0.008237 
0.008290 
0.008341 
0.008389 
0.008435 
0.008479 
0.008520 
0.008558 
0.008594 
0.008628 
0.008658 
0.008686 
0.008711 
0.008733 
0.008753 
0.008770 
0.008784 
0.008795 
0.008804 
0.008809 
0.008812 
0.000000 
0.000000 
0.000000 
0.000000 
0.000000 
0.000000 
0.000000 
0.000000 
0.000000 
0.000000 
0.000000 
0.000000 
0.000000 
0.000000 
0.000000 
0.000000 
0.000000 
0.000000 
0.000000 
0.000000 
0.000000 
0.000000 
0.000000 
0.000000 
0.000000 
0.000000 
0.000000 
0.000000 
0.000000 
0.000000 
0.000000 
0.000000 
0.000000 
0.000000 
0.000000 
0.000000 
0.000000 
0.000000 
0.000000 
0.000000 
0.000000 
0.000000 
0.000000 
0.000000 
0.000000 
0.000000 
0.000000 
0.000000 
0.000000 
0.000000 
0.000000 
0.000000 
0.000000 
0.000000 
0.000000 
0.000000 
0.000000 
0.000000 
0.000000 
0.000000 
0.000000 
0.000000 
0.000000 
0.000000 
0.000000 
0.000000 
0.000000 
0.000000 
0.000001 
0.000001 
0.000001 
0.000001 
0.000001 
0.000001 
0.000001 
0.000001 
0.000001 
0.000001 
0.000001 
0.000001 
0.000001 
0.000002 
0.000002 
0.000002 
0.000002 
0.000002 
0.000002 
0.000003 
0.000003 
0.000003 
0.000003 
0.000004 
0.000004 
0.000004 
0.000005 
0.000005 
0.000005 
0.000006 
0.000006 
0.000007 
0.000007 
0.000008 
0.000008 
0.000009 
0.000010 
0.000011 
0.000011 
0.000012 
0.000013 
0.000014 
0.000015 
0.000016 
0.000018 
0.000019 
0.000020 
0.000022 
0.000023 
0.000025 
0.000027 
0.000029 
0.000031 
0.000033 
0.000035 
0.000037 
0.000040 
0.000043 
0.000045 
0.000048 
0.000052 
0.000055 
0.000059 
0.000063 
0.000067 
0.000071 
0.000076 
0.000080 
0.000085 
0.000091 
0.000096 
0.000102 
0.000109 
0.000115 
0.000122 
0.000130 
0.000137 
0.000146 
0.000154 
0.000163 
0.000173 
0.000183 
0.000193 
0.000204 
0.000216 
0.000228 
0.000240 
0.000254 
0.000267 
0.000282 
0.000297 
0.000313 
0.000330 
0.000347 
0.000365 
0.000384 
0.000404 
0.000424 
0.000445 
0.000468 
0.000491 
0.000515 
0.000540 
0.000566 
0.000593 
0.000621 
0.000651 
0.000681 
0.000712 
0.000745 
0.000779 
0.000814 
0.000850 
0.000887 
0.000926 
0.000966 
0.001008 
0.001050 
0.001094 
0.001140 
0.001187 
0.001235 
0.001285 
0.001336 
0.001389 
0.001443 
0.001499 
0.001556 
0.001615 
0.001676 
0.001738 
0.001801 
0.001866 
0.001933 
0.002002 
0.002072 
0.002143 
0.002216 
0.002291 
0.002368 
0.002446 
0.002525 
0.002606 
0.002689 
0.002773 
0.002859 
0.002947 
0.003035 
0.003126 
0.003217 
0.003311 
0.003405 
0.003501 
0.003598 
0.003697 
0.003797 
0.003898 
0.004000 
0.004104 
0.004208 
0.004314 
0.004421 
0.004528 
0.004637 
0.004746 
0.004856 
0.004967 
0.005078 
0.005191 
0.005303 
0.005416 
0.005530 
0.005644 
0.005758 
0.005872 
0.005987 
0.006101 
0.006216 
0.006330 
0.006445 
0.006559 
0.006672 
0.006786 
0.006898 
0.007011 
0.007122 
0.007233 
0.007343 
0.007452 
0.007561 
0.007668 
0.007774 
0.007878 
0.007982 
0.008084 
0.008185 
0.008284 
0.008381 
0.008477 
0.008571 
0.008663 
0.008753 
0.008841 
0.008928 
0.009012 
0.009093 
0.009173 
0.009250 
0.009325 
0.009397 
0.009467 
0.009534 
0.009599 
0.009660 
0.009720 
0.009776 
0.009829 
0.009880 
0.009927 
0.009972 
0.010013 
0.010052 
0.010087 
0.010120 
0.010149 
0.010175 
0.010198 
0.010217 
0.010233 
0.010247 
0.010256 
0.010263 
0.010266 
0.000000 
0.000000 
0.000000 
0.000000 
0.000000 
0.000000 
0.000000 
0.000000 
0.000000 
0.000000 
0.000000 
0.000000 
0.000000 
0.000000 
0.000000 
0.000000 
0.000000 
0.000000 
0.000000 
0.000000 
0.000000 
0.000000 
0.000000 
0.000000 
0.000000 
0.000000 