# vtk DataFile Version 3.0
results.vtk
ASCII
DATASET RECTILINEAR_GRID
DIMENSIONS 301 301 1
X_COORDINATES 301 double
0.000000 0.003333 0.006667 0.010000 0.013333 0.016667 0.020000 0.023333 0.026667 0.030000 0.033333 0.036667 0.040000 0.043333 0.046667 0.050000 0.053333 0.056667 0.060000 0.063333 0.066667 0.070000 0.073333 0.076667 0.080000 0.083333 0.086667 0.090000 0.093333 0.096667 0.100000 0.103333 0.106667 0.110000 0.113333 0.116667 0.120000 0.123333 0.126667 0.130000 0.133333 0.136667 0.140000 0.143333 0.146667 0.150000 0.153333 0.156667 0.160000 0.163333 0.166667 0.170000 0.173333 0.176667 0.180000 0.183333 0.186667 0.190000 0.193333 0.196667 0.200000 0.203333 0.206667 0.210000 0.213333 0.216667 0.220000 0.223333 0.226667 0.230000 0.233333 0.236667 0.240000 0.243333 0.246667 0.250000 0.253333 0.256667 0.260000 0.263333 0.266667 0.270000 0.273333 0.276667 0.280000 0.283333 0.286667 0.290000 0.293333 0.296667 0.300000 0.303333 0.306667 0.310000 0.313333 0.316667 0.320000 0.323333 0.326667 0.330000 0.333333 0.336667 0.340000 0.343333 0.346667 0.350000 0.353333 0.356667 0.360000 0.363333 0.366667 0.370000 0.373333 0.376667 0.380000 0.383333 0.386667 0.390000 0.393333 0.396667 0.400000 0.403333 0.406667 0.410000 0.413333 0.416667 0.420000 0.423333 0.426667 0.430000 0.433333 0.436667 0.440000 0.443333 0.446667 0.450000 0.453333 0.456667 0.460000 0.463333 0.466667 0.470000 0.473333 0.476667 0.480000 0.483333 0.486667 0.490000 0.493333 0.496667 0.500000 0.503333 0.506667 0.510000 0.513333 0.516667 0.520000 0.523333 0.526667 0.530000 0.533333 0.536667 0.540000 0.543333 0.546667 0.550000 0.553333 0.556667 0.560000 0.563333 0.566667 0.570000 0.573333 0.576667 0.580000 0.583333 0.586667 0.590000 0.593333 0.596667 0.600000 0.603333 0.606667 0.610000 0.613333 0.616667 0.620000 0.623333 0.626667 0.630000 0.633333 0.636667 0.640000 0.643333 0.646667 0.650000 0.653333 0.656667 0.660000 0.663333 0.666667 0.670000 0.673333 0.676667 0.680000 0.683333 0.686667 0.690000 0.693333 0.696667 0.700000 0.703333 0.706667 0.710000 0.713333 0.716667 0.720000 0.723333 0.726667 0.730000 0.733333 0.736667 0.740000 0.743333 0.746667 0.750000 0.753333 0.756667 0.760000 0.763333 0.766667 0.770000 0.773333 0.776667 0.780000 0.783333 0.786667 0.790000 0.793333 0.796667 0.800000 0.803333 0.806667 0.810000 0.813333 0.816667 0.820000 0.823333 0.826667 0.830000 0.833333 0.836667 0.840000 0.843333 0.846667 0.850000 0.853333 0.856667 0.860000 0.863333 0.866667 0.870000 0.873333 0.876667 0.880000 0.883333 0.886667 0.890000 0.893333 0.896667 0.900000 0.903333 0.906667 0.910000 0.913333 0.916667 0.920000 0.923333 0.926667 0.930000 0.933333 0.936667 0.940000 0.943333 0.946667 0.950000 0.953333 0.956667 0.960000 0.963333 0.966667 0.970000 0.973333 0.976667 0.980000 0.983333 0.986667 0.990000 0.993333 0.996667 1.000000 
Y_COORDINATES 301 double
0.000000 0.003333 0.006667 0.010000 0.013333 0.016667 0.020000 0.023333 0.026667 0.030000 0.033333 0.036667 0.040000 0.043333 0.046667 0.050000 0.053333 0.056667 0.060000 0.063333 0.066667 0.070000 0.073333 0.076667 0.080000 0.083333 0.086667 0.090000 0.093333 0.096667 0.100000 0.103333 0.106667 0.110000 0.113333 0.116667 0.120000 0.123333 0.126667 0.130000 0.133333 0.136667 0.140000 0.143333 0.146667 0.150000 0.153333 0.156667 0.160000 0.163333 0.166667 0.170000 0.173333 0.176667 0.180000 0.183333 0.186667 0.190000 0.193333 0.196667 0.200000 0.203333 0.206667 0.210000 0.213333 0.216667 0.220000 0.223333 0.226667 0.230000 0.233333 0.236667 0.240000 0.243333 0.246667 0.250000 0.253333 0.256667 0.260000 0.263333 0.266667 0.270000 0.273333 0.276667 0.280000 0.283333 0.286667 0.290000 0.293333 0.296667 0.300000 0.303333 0.306667 0.310000 0.313333 0.316667 0.320000 0.323333 0.326667 0.330000 0.333333 0.336667 0.340000 0.343333 0.346667 0.350000 0.353333 0.356667 0.360000 0.363333 0.366667 0.370000 0.373333 0.376667 0.380000 0.383333 0.386667 0.390000 0.393333 0.396667 0.400000 0.403333 0.406667 0.410000 0.413333 0.416667 0.420000 0.423333 0.426667 0.430000 0.433333 0.436667 0.440000 0.443333 0.446667 0.450000 0.453333 0.456667 0.460000 0.463333 0.466667 0.470000 0.473333 0.476667 0.480000 0.483333 0.486667 0.490000 0.493333 0.496667 0.500000 0.503333 0.506667 0.510000 0.513333 0.516667 0.520000 0.523333 0.526667 0.530000 0.533333 0.536667 0.540000 0.543333 0.546667 0.550000 0.553333 0.556667 0.560000 0.563333 0.566667 0.570000 0.573333 0.576667 0.580000 0.583333 0.586667 0.590000 0.593333 0.596667 0.600000 0.603333 0.606667 0.610000 0.613333 0.616667 0.620000 0.623333 0.626667 0.630000 0.633333 0.636667 0.640000 0.643333 0.646667 0.650000 0.653333 0.656667 0.660000 0.663333 0.666667 0.670000 0.673333 0.676667 0.680000 0.683333 0.686667 0.690000 0.693333 0.696667 0.700000 0.703333 0.706667 0.710000 0.713333 0.716667 0.720000 0.723333 0.726667 0.730000 0.733333 0.736667 0.740000 0.743333 0.746667 0.750000 0.753333 0.756667 0.760000 0.763333 0.766667 0.770000 0.773333 0.776667 0.780000 0.783333 0.786667 0.790000 0.793333 0.796667 0.800000 0.803333 0.806667 0.810000 0.813333 0.816667 0.820000 0.823333 0.826667 0.830000 0.833333 0.836667 0.840000 0.843333 0.846667 0.850000 0.853333 0.856667 0.860000 0.863333 0.866667 0.870000 0.873333 0.876667 0.880000 0.883333 0.886667 0.890000 0.893333 0.896667 0.900000 0.903333 0.906667 0.910000 0.913333 0.916667 0.920000 0.923333 0.926667 0.930000 0.933333 0.936667 0.940000 0.943333 0.946667 0.950000 0.953333 0.956667 0.960000 0.963333 0.966667 0.970000 0.973333 0.976667 0.980000 0.983333 0.986667 0.990000 0.993333 0.996667 1.000000 
Z_COORDINATES 1 double
0
POINT_DATA 90601 
FIELD FieldData 1 
Concentração 1 90601 double 
0.000000 
0.000000 
0.000000 
0.000000 
0.000000 
0.000000 
0.000000 
0.000000 
0.000000 
0.000000 
0.000000 
0.000000 
0.000000 
0.000000 
0.000000 
0.000000 
0.000000 
0.000000 
0.000000 
0.000000 
0.000000 
0.000000 
0.000000 
0.000000 
0.000000 
0.000000 
0.000000 
0.000000 
0.000000 
0.000000 
0.000000 
0.000000 
0.000000 
0.000000 
0.000000 
0.000000 
0.000000 
0.000000 
0.000000 
0.000000 
0.000000 
0.000000 
0.000000 
0.000000 
0.000000 
0.000000 
0.000000 
0.000000 
0.000000 
0.000000 
0.000000 
0.000000 
0.000000 
0.000000 
0.000000 
0.000000 
0.000000 
0.000000 
0.000000 
0.000000 
0.000000 
0.000000 
0.000000 
0.000000 
0.000000 
0.000000 
0.000000 
0.000000 
0.000000 
0.000000 
0.000000 
0.000000 
0.000000 
0.000000 
0.000000 
0.000000 
0.000000 
0.000000 
0.000000 
0.000000 
0.000000 
0.000000 
0.000000 
0.000000 
0.000000 
0.000000 
0.000000 
0.000000 
0.000000 
0.000000 
0.000000 
0.000000 
0.000000 
0.000000 
0.000000 
0.000000 
0.000000 
0.000000 
0.000000 
0.000000 
0.000000 
0.000000 
0.000000 
0.000000 
0.000000 
0.000000 
0.000000 
0.000000 
0.000000 
0.000001 
0.000001 
0.000001 
0.000001 
0.000001 
0.000001 
0.000001 
0.000001 
0.000001 
0.000001 
0.000001 
0.000001 
0.000001 
0.000001 
0.000001 
0.000001 
0.000002 
0.000002 
0.000002 
0.000002 
0.000002 
0.000002 
0.000002 
0.000003 
0.000003 
0.000003 
0.000003 
0.000003 
0.000004 
0.000004 
0.000004 
0.000004 
0.000004 
0.000005 
0.000005 
0.000005 
0.000006 
0.000006 
0.000006 
0.000007 
0.000007 
0.000008 
0.000008 
0.000009 
0.000009 
0.000010 
0.000010 
0.000011 
0.000011 
0.000012 
0.000013 
0.000013 
0.000014 
0.000015 
0.000016 
0.000016 
0.000017 
0.000018 
0.000019 
0.000020 
0.000021 
0.000022 
0.000023 
0.000025 
0.000026 
0.000027 
0.000028 
0.000030 
0.000031 
0.000033 
0.000034 
0.000036 
0.000037 
0.000039 
0.000041 
0.000043 
0.000045 
0.000047 
0.000049 
0.000051 
0.000053 
0.000055 
0.000057 
0.000060 
0.000062 
0.000065 
0.000067 
0.000070 
0.000073 
0.000076 
0.000079 
0.000082 
0.000085 
0.000088 
0.000091 
0.000095 
0.000098 
0.000101 
0.000105 
0.000109 
0.000113 
0.000116 
0.000120 
0.000124 
0.000128 
0.000133 
0.000137 
0.000141 
0.000146 
0.000150 
0.000155 
0.000159 
0.000164 
0.000169 
0.000174 
0.000179 
0.000184 
0.000189 
0.000194 
0.000199 
0.000205 
0.000210 
0.000215 
0.000221 
0.000226 
0.000232 
0.000237 
0.000243 
0.000249 
0.000255 
0.000260 
0.000266 
0.000272 
0.000278 
0.000284 
0.000289 
0.000295 
0.000301 
0.000307 
0.000313 
0.000319 
0.000325 
0.000331 
0.000337 
0.000342 
0.000348 
0.000354 
0.000360 
0.000365 
0.000371 
0.000377 
0.000382 
0.000388 
0.000393 
0.000398 
0.000404 
0.000409 
0.000414 
0.000419 
0.000424 
0.000429 
0.000434 
0.000438 
0.000443 
0.000447 
0.000451 
0.000456 
0.000460 
0.000464 
0.000467 
0.000471 
0.000474 
0.000478 
0.000481 
0.000484 
0.000487 
0.000490 
0.000492 
0.000495 
0.000497 
0.000499 
0.000501 
0.000503 
0.000504 
0.000506 
0.000507 
0.000508 
0.000509 
0.000510 
0.000510 
0.000511 
0.000511 
0.000000 
0.000000 
0.000000 
0.000000 
0.000000 
0.000000 
0.000000 
0.000000 
0.000000 
0.000000 
0.000000 
0.000000 
0.000000 
0.000000 
0.000000 
0.000000 
0.000000 
0.000000 
0.000000 
0.000000 
0.000000 
0.000000 
0.000000 
0.000000 
0.000000 
0.000000 
0.000000 
0.000000 
0.000000 
0.000000 
0.000000 
0.000000 
0.000000 
0.000000 
0.000000 
0.000000 
0.000000 
0.000000 
0.000000 
0.000000 
0.000000 
0.000000 
0.000000 
0.000000 
0.000000 
0.000000 
0.000000 
0.000000 
0.000000 
0.000000 
0.000000 
0.000000 
0.000000 
0.000000 
0.000000 
0.000000 
0.000000 
0.000000 
0.000000 
0.000000 
0.000000 
0.000000 
0.000000 
0.000000 
0.000000 
0.000000 
0.000000 
0.000000 
0.000000 
0.000000 
0.000000 
0.000000 
0.000000 
0.000000 
0.000000 
0.000000 
0.000000 
0.000000 
0.000000 
0.000000 
0.000000 
0.000000 
0.000000 
0.000000 
0.000000 
0.000000 
0.000000 
0.000000 
0.000000 
0.000000 
0.000000 
0.000000 
0.000000 
0.000000 
0.000000 
0.000000 
0.000000 
0.000000 
0.000000 
0.000000 
0.000001 
0.000001 
0.000001 
0.000001 
0.000001 
0.000001 
0.000001 
0.000001 
0.000001 
0.000001 
0.000001 
0.000001 
0.000001 
0.000001 
0.000001 
0.000002 
0.000002 
0.000002 
0.000002 
0.000002 
0.000002 
0.000002 
0.000003 
0.000003 
0.000003 
0.000003 
0.000003 
0.000004 
0.000004 
0.000004 
0.000004 
0.000005 
0.000005 
0.000005 
0.000006 
0.000006 
0.000007 
0.000007 
0.000008 
0.000008 
0.000008 
0.000009 
0.000010 
0.000010 
0.000011 
0.000011 
0.000012 
0.000013 
0.000014 
0.000015 
0.000015 
0.000016 
0.000017 
0.000018 
0.000019 
0.000020 
0.000022 
0.000023 
0.000024 
0.000025 
0.000027 
0.000028 
0.000030 
0.000031 
0.000033 
0.000035 
0.000037 
0.000039 
0.000041 
0.000043 
0.000045 
0.000047 
0.000049 
0.000052 
0.000054 
0.000057 
0.000060 
0.000063 
0.000066 
0.000069 
0.000072 
0.000075 
0.000079 
0.000082 
0.000086 
0.000090 
0.000094 
0.000098 
0.000102 
0.000106 
0.000111 
0.000116 
0.000120 
0.000125 
0.000130 
0.000136 
0.000141 
0.000147 
0.000152 
0.000158 
0.000164 
0.000171 
0.000177 
0.000184 
0.000190 
0.000197 
0.000204 
0.000211 
0.000219 
0.000226 
0.000234 
0.000242 
0.000250 
0.000258 
0.000267 
0.000275 
0.000284 
0.000293 
0.000302 
0.000311 
0.000320 
0.000330 
0.000340 
0.000349 
0.000359 
0.000370 
0.000380 
0.000390 
0.000401 
0.000411 
0.000422 
0.000433 
0.000444 
0.000455 
0.000466 
0.000477 
0.000489 
0.000500 
0.000512 
0.000523 
0.000535 
0.000547 
0.000558 
0.000570 
0.000582 
0.000594 
0.000606 
0.000618 
0.000629 
0.000641 
0.000653 
0.000665 
0.000677 
0.000688 
0.000700 
0.000712 
0.000723 
0.000735 
0.000746 
0.000757 
0.000768 
0.000779 
0.000790 
0.000801 
0.000812 
0.000822 
0.000832 
0.000842 
0.000852 
0.000862 
0.000872 
0.000881 
0.000890 
0.000899 
0.000907 
0.000916 
0.000924 
0.000932 
0.000939 
0.000947 
0.000954 
0.000961 
0.000967 
0.000973 
0.000979 
0.000984 
0.000990 
0.000995 
0.000999 
0.001003 
0.001007 
0.001011 
0.001014 
0.001017 
0.001019 
0.001022 
0.001023 
0.001025 
0.001026 
0.001027 
0.001027 
0.000000 
0.000000 
0.000000 
0.000000 
0.000000 
0.000000 
0.000000 
0.000000 
0.000000 
0.000000 
0.000000 
0.000000 
0.000000 
0.000000 
0.000000 
0.000000 
0.000000 
0.000000 
0.000000 
0.000000 
0.000000 
0.000000 
0.000000 
0.000000 
0.000000 
0.000000 
0.000000 
0.000000 
0.000000 
0.000000 
0.000000 
0.000000 
0.000000 
0.000000 
0.000000 
0.000000 
0.000000 
0.000000 
0.000000 
0.000000 
0.000000 
0.000000 
0.000000 
0.000000 
0.000000 
0.000000 
0.000000 
0.000000 
0.000000 
0.000000 
0.000000 
0.000000 
0.000000 
0.000000 
0.000000 
0.000000 
0.000000 
0.000000 
0.000000 
0.000000 
0.000000 
0.000000 
0.000000 
0.000000 
0.000000 
0.000000 
0.000000 
0.000000 
0.000000 
0.000000 
0.000000 
0.000000 
0.000000 
0.000000 
0.000000 
0.000000 
0.000000 
0.000000 
0.000000 
0.000000 
0.000000 
0.000000 
0.000000 
0.000000 
0.000000 
0.000000 
0.000000 
0.000000 
0.000000 
0.000000 
0.000000 
0.000000 
0.000000 
0.000000 
0.000000 
0.000001 
0.000001 
0.000001 
0.000001 
0.000001 
0.000001 
0.000001 
0.000001 
0.000001 
0.000001 
0.000001 
0.000001 
0.000001 
0.000001 
0.000002 
0.000002 
0.000002 
0.000002 
0.000002 
0.000002 
0.000002 
0.000003 
0.000003 
0.000003 
0.000003 
0.000003 
0.000004 
0.000004 
0.000004 
0.000005 
0.000005 
0.000005 
0.000006 
0.000006 
0.000006 
0.000007 
0.000007 
0.000008 
0.000008 
0.000009 
0.000009 
0.000010 
0.000011 
0.000011 
0.000012 
0.000013 
0.000014 
0.000015 
0.000015 
0.000016 
0.000017 
0.000018 
0.000020 
0.000021 
0.000022 
0.000023 
0.000025 
0.000026 
0.000028 
0.000029 
0.000031 
0.000033 
0.000035 
0.000036 
0.000038 
0.000041 
0.000043 
0.000045 
0.000048 
0.000050 
0.000053 
0.000056 
0.000058 
0.000061 
0.000065 
0.000068 
0.000071 
0.000075 
0.000079 
0.000082 
0.000086 
0.000091 
0.000095 
0.000099 
0.000104 
0.000109 
0.000114 
0.000119 
0.000125 
0.000130 
0.000136 
0.000142 
0.000148 
0.000155 
0.000161 
0.000168 
0.000175 
0.000182 
0.000190 
0.000198 
0.000206 
0.000214 
0.000222 
0.000231 
0.000240 
0.000249 
0.000258 
0.000268 
0.000278 
0.000288 
0.000299 
0.000309 
0.000320 
0.000331 
0.000343 
0.000354 
0.000366 
0.000379 
0.000391 
0.000404 
0.000417 
0.000430 
0.000443 
0.000457 
0.000471 
0.000485 
0.000500 
0.000514 
0.000529 
0.000544 
0.000559 
0.000575 
0.000591 
0.000607 
0.000623 
0.000639 
0.000655 
0.000672 
0.000689 
0.000706 
0.000723 
0.000740 
0.000757 
0.000775 
0.000792 
0.000810 
0.000827 
0.000845 
0.000863 
0.000881 
0.000899 
0.000917 
0.000935 
0.000953 
0.000971 
0.000988 
0.001006 
0.001024 
0.001042 
0.001059 
0.001077 
0.001094 
0.001112 
0.001129 
0.001146 
0.001163 
0.001179 
0.001196 
0.001212 
0.001228 
0.001244 
0.001259 
0.001275 
0.001290 
0.001304 
0.001319 
0.001333 
0.001346 
0.001360 
0.001373 
0.001385 
0.001398 
0.001410 
0.001421 
0.001432 
0.001443 
0.001453 
0.001463 
0.001472 
0.001481 
0.001489 
0.001497 
0.001504 
0.001511 
0.001518 
0.001524 
0.001529 
0.001534 
0.001538 
0.001542 
0.001545 
0.001548 
0.001550 
0.001552 
0.001553 
0.001553 
0.000000 
0.000000 
0.000000 
0.000000 
0.000000 
0.000000 
0.000000 
0.000000 
0.000000 
0.000000 
0.000000 
0.000000 
0.000000 
0.000000 
0.000000 
0.000000 
0.000000 
0.000000 
0.000000 
0.000000 
0.000000 
0.000000 
0.000000 
0.000000 
0.000000 
0.000000 
0.000000 
0.000000 
0.000000 
0.000000 
0.000000 
0.000000 
0.000000 
0.000000 
0.000000 
0.000000 
0.000000 
0.000000 
0.000000 
0.000000 
0.000000 
0.000000 
0.000000 
0.000000 
0.000000 
0.000000 
0.000000 
0.000000 
0.000000 
0.000000 
0.000000 
0.000000 
0.000000 
0.000000 
0.000000 
0.000000 
0.000000 
0.000000 
0.000000 
0.000000 
0.000000 
0.000000 
0.000000 
0.000000 
0.000000 
0.000000 
0.000000 
0.000000 
0.000000 
0.000000 
0.000000 
0.000000 
0.000000 
0.000000 
0.000000 
0.000000 
0.000000 
0.000000 
0.000000 
0.000000 
0.000000 
0.000000 
0.000000 
0.000000 
0.000000 
0.000000 
0.000000 
0.000000 
0.000000 
0.000000 
0.000000 
0.000001 
0.000001 
0.000001 
0.000001 
0.000001 
0.000001 
0.000001 
0.000001 
0.000001 
0.000001 
0.000001 
0.000001 
0.000001 
0.000001 
0.000002 
0.000002 
0.000002 
0.000002 
0.000002 
0.000002 
0.000002 
0.000003 
0.000003 
0.000003 
0.000003 
0.000004 
0.000004 
0.000004 
0.000004 
0.000005 
0.000005 
0.000005 
0.000006 
0.000006 
0.000007 
0.000007 
0.000008 
0.000008 
0.000009 
0.000009 
0.000010 
0.000011 
0.000011 
0.000012 
0.000013 
0.000014 
0.000014 
0.000015 
0.000016 
0.000017 
0.000019 
0.000020 
0.000021 
0.000022 
0.000024 
0.000025 
0.000027 
0.000028 
0.000030 
0.000032 
0.000033 
0.000035 
0.000037 
0.000040 
0.000042 
0.000044 
0.000047 
0.000049 
0.000052 
0.000055 
0.000058 
0.000061 
0.000064 
0.000068 
0.000071 
0.000075 
0.000079 
0.000083 
0.000087 
0.000092 
0.000096 
0.000101 
0.000106 
0.000111 
0.000117 
0.000122 
0.000128 
0.000134 
0.000141 
0.000147 
0.000154 
0.000161 
0.000168 
0.000176 
0.000184 
0.000192 
0.000200 
0.000209 
0.000218 
0.000227 
0.000237 
0.000246 
0.000257 
0.000267 
0.000278 
0.000289 
0.000300 
0.000312 
0.000324 
0.000336 
0.000349 
0.000362 
0.000376 
0.000389 
0.000403 
0.000418 
0.000433 
0.000448 
0.000463 
0.000479 
0.000495 
0.000512 
0.000528 
0.000545 
0.000563 
0.000581 
0.000599 
0.000617 
0.000636 
0.000655 
0.000675 
0.000695 
0.000715 
0.000735 
0.000756 
0.000777 
0.000798 
0.000819 
0.000841 
0.000863 
0.000885 
0.000907 
0.000930 
0.000953 
0.000976 
0.000999 
0.001022 
0.001046 
0.001070 
0.001093 
0.001117 
0.001141 
0.001165 
0.001189 
0.001213 
0.001238 
0.001262 
0.001286 
0.001310 
0.001334 
0.001358 
0.001382 
0.001406 
0.001430 
0.001453 
0.001477 
0.001500 
0.001523 
0.001546 
0.001569 
0.001591 
0.001614 
0.001635 
0.001657 
0.001678 
0.001699 
0.001720 
0.001740 
0.001760 
0.001779 
0.001798 
0.001817 
0.001835 
0.001852 
0.001869 
0.001886 
0.001902 
0.001917 
0.001932 
0.001946 
0.001960 
0.001973 
0.001986 
0.001998 
0.002009 
0.002020 
0.002030 
0.002039 
0.002047 
0.002055 
0.002063 
0.002069 
0.002075 
0.002080 
0.002084 
0.002088 
0.002091 
0.002093 
0.002095 
0.002095 
0.000000 
0.000000 
0.000000 
0.000000 
0.000000 
0.000000 
0.000000 
0.000000 
0.000000 
0.000000 
0.000000 
0.000000 
0.000000 
0.000000 
0.000000 
0.000000 
0.000000 
0.000000 
0.000000 
0.000000 
0.000000 
0.000000 
0.000000 
0.000000 
0.000000 
0.000000 
0.000000 
0.000000 
0.000000 
0.000000 
0.000000 
0.000000 
0.000000 
0.000000 
0.000000 
0.000000 
0.000000 
0.000000 
0.000000 
0.000000 
0.000000 
0.000000 
0.000000 
0.000000 
0.000000 
0.000000 
0.000000 
0.000000 
0.000000 
0.000000 
0.000000 
0.000000 
0.000000 
0.000000 
0.000000 
0.000000 
0.000000 
0.000000 
0.000000 
0.000000 
0.000000 
0.000000 
0.000000 
0.000000 
0.000000 
0.000000 
0.000000 
0.000000 
0.000000 
0.000000 
0.000000 
0.000000 
0.000000 
0.000000 
0.000000 
0.000000 
0.000000 
0.000000 
0.000000 
0.000000 
0.000000 
0.000000 
0.000000 
0.000000 
0.000000 
0.000000 
0.000000 
0.000000 
0.000001 
0.000001 
0.000001 
0.000001 
0.000001 
0.000001 
0.000001 
0.000001 
0.000001 
0.000001 
0.000001 
0.000001 
0.000001 
0.000001 
0.000002 
0.000002 
0.000002 
0.000002 
0.000002 
0.000002 
0.000003 
0.000003 
0.000003 
0.000003 
0.000003 
0.000004 
0.000004 
0.000004 
0.000005 
0.000005 
0.000005 
0.000006 
0.000006 
0.000006 
0.000007 
0.000007 
0.000008 
0.000008 
0.000009 
0.000010 
0.000010 
0.000011 
0.000012 
0.000013 
0.000013 
0.000014 
0.000015 
0.000016 
0.000017 
0.000018 
0.000020 
0.000021 
0.000022 
0.000024 
0.000025 
0.000027 
0.000028 
0.000030 
0.000032 
0.000034 
0.000036 
0.000038 
0.000040 
0.000043 
0.000045 
0.000048 
0.000050 
0.000053 
0.000056 
0.000059 
0.000063 
0.000066 
0.000070 
0.000074 
0.000078 
0.000082 
0.000086 
0.000091 
0.000096 
0.000101 
0.000106 
0.000111 
0.000117 
0.000123 
0.000129 
0.000135 
0.000142 
0.000149 
0.000156 
0.000163 
0.000171 
0.000179 
0.000187 
0.000196 
0.000205 
0.000214 
0.000224 
0.000234 
0.000244 
0.000255 
0.000266 
0.000277 
0.000289 
0.000301 
0.000313 
0.000326 
0.000340 
0.000353 
0.000367 
0.000382 
0.000397 
0.000412 
0.000428 
0.000444 
0.000461 
0.000478 
0.000495 
0.000513 
0.000531 
0.000550 
0.000569 
0.000589 
0.000609 
0.000629 
0.000650 
0.000672 
0.000693 
0.000716 
0.000738 
0.000761 
0.000785 
0.000809 
0.000833 
0.000858 
0.000883 
0.000908 
0.000934 
0.000960 
0.000987 
0.001014 
0.001041 
0.001068 
0.001096 
0.001124 
0.001153 
0.001182 
0.001210 
0.001240 
0.001269 
0.001299 
0.001328 
0.001358 
0.001389 
0.001419 
0.001449 
0.001480 
0.001510 
0.001541 
0.001572 
0.001602 
0.001633 
0.001663 
0.001694 
0.001724 
0.001755 
0.001785 
0.001815 
0.001845 
0.001875 
0.001905 
0.001934 
0.001963 
0.001992 
0.002020 
0.002048 
0.002076 
0.002103 
0.002130 
0.002157 
0.002183 
0.002208 
0.002233 
0.002258 
0.002282 
0.002305 
0.002328 
0.002350 
0.002372 
0.002393 
0.002413 
0.002433 
0.002452 
0.002470 
0.002487 
0.002504 
0.002520 
0.002535 
0.002549 
0.002563 
0.002575 
0.002587 
0.002598 
0.002608 
0.002617 
0.002625 
0.002633 
0.002639 
0.002645 
0.002649 
0.002653 
0.002656 
0.002658 
0.002659 
0.000000 
0.000000 
0.000000 
0.000000 
0.000000 
0.000000 
0.000000 
0.000000 
0.000000 
0.000000 
0.000000 
0.000000 
0.000000 
0.000000 
0.000000 
0.000000 
0.000000 
0.000000 
0.000000 
0.000000 
0.000000 
0.000000 
0.000000 
0.000000 
0.000000 
0.000000 
0.000000 
0.000000 
0.000000 
0.000000 
0.000000 
0.000000 
0.000000 
0.000000 
0.000000 
0.000000 
0.000000 
0.000000 
0.000000 
0.000000 
0.000000 
0.000000 
0.000000 
0.000000 
0.000000 
0.000000 
0.000000 
0.000000 
0.000000 
0.000000 
0.000000 
0.000000 
0.000000 
0.000000 
0.000000 
0.000000 
0.000000 
0.000000 
0.000000 
0.000000 
0.000000 
0.000000 
0.000000 
0.000000 
0.000000 
0.000000 
0.000000 
0.000000 
0.000000 
0.000000 
0.000000 
0.000000 
0.000000 
0.000000 
0.000000 
0.000000 
0.000000 
0.000000 
0.000000 
0.000000 
0.000000 
0.000000 
0.000000 
0.000000 
0.000000 
0.000001 
0.000001 
0.000001 
0.000001 
0.000001 
0.000001 
0.000001 
0.000001 
0.000001 
0.000001 
0.000001 
0.000001 
0.000001 
0.000001 
0.000002 
0.000002 
0.000002 
0.000002 
0.000002 
0.000002 
0.000002 
0.000003 
0.000003 
0.000003 
0.000003 
0.000004 
0.000004 
0.000004 
0.000004 
0.000005 
0.000005 
0.000006 
0.000006 
0.000006 
0.000007 
0.000007 
0.000008 
0.000008 
0.000009 
0.000010 
0.000010 
0.000011 
0.000012 
0.000013 
0.000013 
0.000014 
0.000015 
0.000016 
0.000018 
0.000019 
0.000020 
0.000021 
0.000023 
0.000024 
0.000026 
0.000027 
0.000029 
0.000031 
0.000033 
0.000035 
0.000037 
0.000039 
0.000041 
0.000044 
0.000047 
0.000049 
0.000052 
0.000055 
0.000058 
0.000062 
0.000065 
0.000069 
0.000073 
0.000077 
0.000081 
0.000086 
0.000090 
0.000095 
0.000100 
0.000106 
0.000111 
0.000117 
0.000123 
0.000130 
0.000136 
0.000143 
0.000150 
0.000158 
0.000166 
0.000174 
0.000182 
0.000191 
0.000200 
0.000210 
0.000220 
0.000230 
0.000240 
0.000251 
0.000263 
0.000274 
0.000287 
0.000299 
0.000312 
0.000326 
0.000340 
0.000354 
0.000369 
0.000384 
0.000400 
0.000416 
0.000433 
0.000450 
0.000468 
0.000486 
0.000505 
0.000524 
0.000544 
0.000564 
0.000585 
0.000606 
0.000628 
0.000651 
0.000674 
0.000697 
0.000721 
0.000746 
0.000771 
0.000796 
0.000822 
0.000849 
0.000876 
0.000904 
0.000932 
0.000961 
0.000990 
0.001020 
0.001050 
0.001081 
0.001112 
0.001143 
0.001175 
0.001208 
0.001241 
0.001274 
0.001308 
0.001342 
0.001376 
0.001411 
0.001446 
0.001481 
0.001517 
0.001553 
0.001589 
0.001625 
0.001662 
0.001699 
0.001736 
0.001773 
0.001810 
0.001847 
0.001885 
0.001922 
0.001960 
0.001997 
0.002034 
0.002072 
0.002109 
0.002146 
0.002183 
0.002220 
0.002256 
0.002292 
0.002329 
0.002364 
0.002400 
0.002435 
0.002469 
0.002504 
0.002538 
0.002571 
0.002604 
0.002636 
0.002668 
0.002699 
0.002730 
0.002760 
0.002789 
0.002818 
0.002845 
0.002872 
0.002899 
0.002924 
0.002949 
0.002973 
0.002996 
0.003018 
0.003039 
0.003060 
0.003079 
0.003097 
0.003115 
0.003131 
0.003146 
0.003161 
0.003174 
0.003186 
0.003197 
0.003207 
0.003216 
0.003224 
0.003231 
0.003237 
0.003241 
0.003245 
0.003247 
0.003248 
0.000000 
0.000000 
0.000000 
0.000000 
0.000000 
0.000000 
0.000000 
0.000000 
0.000000 
0.000000 
0.000000 
0.000000 
0.000000 
0.000000 
0.000000 
0.000000 
0.000000 
0.000000 
0.000000 
0.000000 
0.000000 
0.000000 
0.000000 
0.000000 
0.000000 
0.000000 
0.000000 
0.000000 
0.000000 
0.000000 
0.000000 
0.000000 
0.000000 
0.000000 
0.000000 
0.000000 
0.000000 
0.000000 
0.000000 
0.000000 
0.000000 
0.000000 
0.000000 
0.000000 
0.000000 
0.000000 
0.000000 
0.000000 
0.000000 
0.000000 
0.000000 
0.000000 
0.000000 
0.000000 
0.000000 
0.000000 
0.000000 
0.000000 
0.000000 
0.000000 
0.000000 
0.000000 
0.000000 
0.000000 
0.000000 
0.000000 
0.000000 
0.000000 
0.000000 
0.000000 
0.000000 
0.000000 
0.000000 
0.000000 
0.000000 
0.000000 
0.000000 
0.000000 
0.000000 
0.000000 
0.000000 
0.000000 
0.000000 
0.000001 
0.000001 
0.000001 
0.000001 
0.000001 
0.000001 
0.000001 
0.000001 
0.000001 
0.000001 
0.000001 
0.000001 
0.000001 
0.000001 
0.000002 
0.000002 
0.000002 
0.000002 
0.000002 
0.000002 
0.000003 
0.000003 
0.000003 
0.000003 
0.000003 
0.000004 
0.000004 
0.000004 
0.000005 
0.000005 
0.000005 
0.000006 
0.000006 
0.000007 
0.000007 
0.000008 
0.000008 
0.000009 
0.000009 
0.000010 
0.000011 
0.000012 
0.000012 
0.000013 
0.000014 
0.000015 
0.000016 
0.000017 
0.000018 
0.000020 
0.000021 
0.000022 
0.000024 
0.000025 
0.000027 
0.000029 
0.000031 
0.000033 
0.000035 
0.000037 
0.000039 
0.000041 
0.000044 
0.000047 
0.000050 
0.000053 
0.000056 
0.000059 
0.000062 
0.000066 
0.000070 
0.000074 
0.000078 
0.000083 
0.000087 
0.000092 
0.000097 
0.000103 
0.000108 
0.000114 
0.000120 
0.000127 
0.000133 
0.000140 
0.000148 
0.000155 
0.000163 
0.000171 
0.000180 
0.000189 
0.000198 
0.000208 
0.000218 
0.000229 
0.000240 
0.000251 
0.000263 
0.000275 
0.000287 
0.000301 
0.000314 
0.000328 
0.000343 
0.000358 
0.000373 
0.000390 
0.000406 
0.000423 
0.000441 
0.000459 
0.000478 
0.000498 
0.000518 
0.000538 
0.000559 
0.000581 
0.000603 
0.000626 
0.000650 
0.000674 
0.000699 
0.000725 
0.000751 
0.000778 
0.000805 
0.000833 
0.000862 
0.000891 
0.000921 
0.000951 
0.000983 
0.001014 
0.001047 
0.001080 
0.001113 
0.001148 
0.001182 
0.001218 
0.001254 
0.001290 
0.001328 
0.001365 
0.001403 
0.001442 
0.001481 
0.001521 
0.001561 
0.001602 
0.001643 
0.001684 
0.001726 
0.001768 
0.001810 
0.001853 
0.001896 
0.001940 
0.001983 
0.002027 
0.002071 
0.002115 
0.002159 
0.002204 
0.002248 
0.002293 
0.002337 
0.002382 
0.002426 
0.002471 
0.002515 
0.002559 
0.002603 
0.002647 
0.002690 
0.002734 
0.002777 
0.002819 
0.002861 
0.002903 
0.002944 
0.002985 
0.003025 
0.003065 
0.003104 
0.003142 
0.003180 
0.003217 
0.003254 
0.003289 
0.003324 
0.003358 
0.003391 
0.003423 
0.003455 
0.003485 
0.003514 
0.003543 
0.003570 
0.003596 
0.003622 
0.003646 
0.003669 
0.003691 
0.003711 
0.003731 
0.003749 
0.003766 
0.003782 
0.003796 
0.003809 
0.003821 
0.003832 
0.003841 
0.003849 
0.003856 
0.003862 
0.003866 
0.003868 
0.003870 
0.000000 
0.000000 
0.000000 
0.000000 
0.000000 
0.000000 
0.000000 
0.000000 
0.000000 
0.000000 
0.000000 
0.000000 
0.000000 
0.000000 
0.000000 
0.000000 
0.000000 
0.000000 
0.000000 
0.000000 
0.000000 
0.000000 
0.000000 
0.000000 
0.000000 
0.000000 
0.000000 
0.000000 
0.000000 
0.000000 
0.000000 
0.000000 
0.000000 
0.000000 
0.000000 
0.000000 
0.000000 
0.000000 
0.000000 
0.000000 
0.000000 
0.000000 
0.000000 
0.000000 
0.000000 
0.000000 
0.000000 
0.000000 
0.000000 
0.000000 
0.000000 
0.000000 
0.000000 
0.000000 
0.000000 
0.000000 
0.000000 
0.000000 
0.000000 
0.000000 
0.000000 
0.000000 
0.000000 
0.000000 
0.000000 
0.000000 
0.000000 
0.000000 
0.000000 
0.000000 
0.000000 
0.000000 
0.000000 
0.000000 
0.000000 
0.000000 
0.000000 
0.000000 
0.000000 
0.000000 
0.000000 
0.000001 
0.000001 
0.000001 
0.000001 
0.000001 
0.000001 
0.000001 
0.000001 
0.000001 
0.000001 
0.000001 
0.000001 
0.000001 
0.000001 
0.000002 
0.000002 
0.000002 
0.000002 
0.000002 
0.000002 
0.000003 
0.000003 
0.000003 
0.000003 
0.000003 
0.000004 
0.000004 
0.000004 
0.000005 
0.000005 
0.000005 
0.000006 
0.000006 
0.000007 
0.000007 
0.000008 
0.000008 
0.000009 
0.000010 
0.000010 
0.000011 
0.000012 
0.000013 
0.000014 
0.000015 
0.000016 
0.000017 
0.000018 
0.000019 
0.000020 
0.000022 
0.000023 
0.000025 
0.000026 
0.000028 
0.000030 
0.000032 
0.000034 
0.000036 
0.000038 
0.000041 
0.000043 
0.000046 
0.000049 
0.000052 
0.000055 
0.000058 
0.000062 
0.000066 
0.000069 
0.000073 
0.000078 
0.000082 
0.000087 
0.000092 
0.000097 
0.000103 
0.000108 
0.000114 
0.000121 
0.000127 
0.000134 
0.000141 
0.000149 
0.000157 
0.000165 
0.000174 
0.000182 
0.000192 
0.000202 
0.000212 
0.000222 
0.000233 
0.000245 
0.000256 
0.000269 
0.000282 
0.000295 
0.000309 
0.000323 
0.000338 
0.000353 
0.000369 
0.000386 
0.000403 
0.000421 
0.000439 
0.000458 
0.000477 
0.000498 
0.000518 
0.000540 
0.000562 
0.000585 
0.000608 
0.000632 
0.000657 
0.000683 
0.000709 
0.000736 
0.000764 
0.000792 
0.000821 
0.000851 
0.000882 
0.000913 
0.000945 
0.000978 
0.001012 
0.001046 
0.001081 
0.001117 
0.001154 
0.001191 
0.001229 
0.001268 
0.001307 
0.001347 
0.001388 
0.001429 
0.001472 
0.001514 
0.001558 
0.001602 
0.001647 
0.001692 
0.001738 
0.001784 
0.001831 
0.001879 
0.001927 
0.001975 
0.002024 
0.002073 
0.002123 
0.002173 
0.002224 
0.002274 
0.002325 
0.002377 
0.002428 
0.002480 
0.002532 
0.002584 
0.002636 
0.002688 
0.002740 
0.002792 
0.002844 
0.002896 
0.002947 
0.002999 
0.003050 
0.003102 
0.003152 
0.003203 
0.003253 
0.003303 
0.003352 
0.003401 
0.003449 
0.003496 
0.003543 
0.003590 
0.003635 
0.003680 
0.003724 
0.003768 
0.003810 
0.003852 
0.003892 
0.003932 
0.003971 
0.004008 
0.004045 
0.004080 
0.004115 
0.004148 
0.004180 
0.004210 
0.004240 
0.004268 
0.004295 
0.004320 
0.004344 
0.004367 
0.004388 
0.004408 
0.004427 
0.004443 
0.004459 
0.004473 
0.004485 
0.004496 
0.004506 
0.004513 
0.004520 
0.004524 
0.004528 
0.004529 
0.000000 
0.000000 
0.000000 
0.000000 
0.000000 
0.000000 
0.000000 
0.000000 
0.000000 
0.000000 
0.000000 
0.000000 
0.000000 
0.000000 
0.000000 
0.000000 
0.000000 
0.000000 
0.000000 
0.000000 
0.000000 
0.000000 
0.000000 
0.000000 
0.000000 
0.000000 