# vtk DataFile Version 3.0
results.vtk
ASCII
DATASET RECTILINEAR_GRID
DIMENSIONS 301 301 1
X_COORDINATES 301 double
0.000000 0.003333 0.006667 0.010000 0.013333 0.016667 0.020000 0.023333 0.026667 0.030000 0.033333 0.036667 0.040000 0.043333 0.046667 0.050000 0.053333 0.056667 0.060000 0.063333 0.066667 0.070000 0.073333 0.076667 0.080000 0.083333 0.086667 0.090000 0.093333 0.096667 0.100000 0.103333 0.106667 0.110000 0.113333 0.116667 0.120000 0.123333 0.126667 0.130000 0.133333 0.136667 0.140000 0.143333 0.146667 0.150000 0.153333 0.156667 0.160000 0.163333 0.166667 0.170000 0.173333 0.176667 0.180000 0.183333 0.186667 0.190000 0.193333 0.196667 0.200000 0.203333 0.206667 0.210000 0.213333 0.216667 0.220000 0.223333 0.226667 0.230000 0.233333 0.236667 0.240000 0.243333 0.246667 0.250000 0.253333 0.256667 0.260000 0.263333 0.266667 0.270000 0.273333 0.276667 0.280000 0.283333 0.286667 0.290000 0.293333 0.296667 0.300000 0.303333 0.306667 0.310000 0.313333 0.316667 0.320000 0.323333 0.326667 0.330000 0.333333 0.336667 0.340000 0.343333 0.346667 0.350000 0.353333 0.356667 0.360000 0.363333 0.366667 0.370000 0.373333 0.376667 0.380000 0.383333 0.386667 0.390000 0.393333 0.396667 0.400000 0.403333 0.406667 0.410000 0.413333 0.416667 0.420000 0.423333 0.426667 0.430000 0.433333 0.436667 0.440000 0.443333 0.446667 0.450000 0.453333 0.456667 0.460000 0.463333 0.466667 0.470000 0.473333 0.476667 0.480000 0.483333 0.486667 0.490000 0.493333 0.496667 0.500000 0.503333 0.506667 0.510000 0.513333 0.516667 0.520000 0.523333 0.526667 0.530000 0.533333 0.536667 0.540000 0.543333 0.546667 0.550000 0.553333 0.556667 0.560000 0.563333 0.566667 0.570000 0.573333 0.576667 0.580000 0.583333 0.586667 0.590000 0.593333 0.596667 0.600000 0.603333 0.606667 0.610000 0.613333 0.616667 0.620000 0.623333 0.626667 0.630000 0.633333 0.636667 0.640000 0.643333 0.646667 0.650000 0.653333 0.656667 0.660000 0.663333 0.666667 0.670000 0.673333 0.676667 0.680000 0.683333 0.686667 0.690000 0.693333 0.696667 0.700000 0.703333 0.706667 0.710000 0.713333 0.716667 0.720000 0.723333 0.726667 0.730000 0.733333 0.736667 0.740000 0.743333 0.746667 0.750000 0.753333 0.756667 0.760000 0.763333 0.766667 0.770000 0.773333 0.776667 0.780000 0.783333 0.786667 0.790000 0.793333 0.796667 0.800000 0.803333 0.806667 0.810000 0.813333 0.816667 0.820000 0.823333 0.826667 0.830000 0.833333 0.836667 0.840000 0.843333 0.846667 0.850000 0.853333 0.856667 0.860000 0.863333 0.866667 0.870000 0.873333 0.876667 0.880000 0.883333 0.886667 0.890000 0.893333 0.896667 0.900000 0.903333 0.906667 0.910000 0.913333 0.916667 0.920000 0.923333 0.926667 0.930000 0.933333 0.936667 0.940000 0.943333 0.946667 0.950000 0.953333 0.956667 0.960000 0.963333 0.966667 0.970000 0.973333 0.976667 0.980000 0.983333 0.986667 0.990000 0.993333 0.996667 1.000000 
Y_COORDINATES 301 double
0.000000 0.003333 0.006667 0.010000 0.013333 0.016667 0.020000 0.023333 0.026667 0.030000 0.033333 0.036667 0.040000 0.043333 0.046667 0.050000 0.053333 0.056667 0.060000 0.063333 0.066667 0.070000 0.073333 0.076667 0.080000 0.083333 0.086667 0.090000 0.093333 0.096667 0.100000 0.103333 0.106667 0.110000 0.113333 0.116667 0.120000 0.123333 0.126667 0.130000 0.133333 0.136667 0.140000 0.143333 0.146667 0.150000 0.153333 0.156667 0.160000 0.163333 0.166667 0.170000 0.173333 0.176667 0.180000 0.183333 0.186667 0.190000 0.193333 0.196667 0.200000 0.203333 0.206667 0.210000 0.213333 0.216667 0.220000 0.223333 0.226667 0.230000 0.233333 0.236667 0.240000 0.243333 0.246667 0.250000 0.253333 0.256667 0.260000 0.263333 0.266667 0.270000 0.273333 0.276667 0.280000 0.283333 0.286667 0.290000 0.293333 0.296667 0.300000 0.303333 0.306667 0.310000 0.313333 0.316667 0.320000 0.323333 0.326667 0.330000 0.333333 0.336667 0.340000 0.343333 0.346667 0.350000 0.353333 0.356667 0.360000 0.363333 0.366667 0.370000 0.373333 0.376667 0.380000 0.383333 0.386667 0.390000 0.393333 0.396667 0.400000 0.403333 0.406667 0.410000 0.413333 0.416667 0.420000 0.423333 0.426667 0.430000 0.433333 0.436667 0.440000 0.443333 0.446667 0.450000 0.453333 0.456667 0.460000 0.463333 0.466667 0.470000 0.473333 0.476667 0.480000 0.483333 0.486667 0.490000 0.493333 0.496667 0.500000 0.503333 0.506667 0.510000 0.513333 0.516667 0.520000 0.523333 0.526667 0.530000 0.533333 0.536667 0.540000 0.543333 0.546667 0.550000 0.553333 0.556667 0.560000 0.563333 0.566667 0.570000 0.573333 0.576667 0.580000 0.583333 0.586667 0.590000 0.593333 0.596667 0.600000 0.603333 0.606667 0.610000 0.613333 0.616667 0.620000 0.623333 0.626667 0.630000 0.633333 0.636667 0.640000 0.643333 0.646667 0.650000 0.653333 0.656667 0.660000 0.663333 0.666667 0.670000 0.673333 0.676667 0.680000 0.683333 0.686667 0.690000 0.693333 0.696667 0.700000 0.703333 0.706667 0.710000 0.713333 0.716667 0.720000 0.723333 0.726667 0.730000 0.733333 0.736667 0.740000 0.743333 0.746667 0.750000 0.753333 0.756667 0.760000 0.763333 0.766667 0.770000 0.773333 0.776667 0.780000 0.783333 0.786667 0.790000 0.793333 0.796667 0.800000 0.803333 0.806667 0.810000 0.813333 0.816667 0.820000 0.823333 0.826667 0.830000 0.833333 0.836667 0.840000 0.843333 0.846667 0.850000 0.853333 0.856667 0.860000 0.863333 0.866667 0.870000 0.873333 0.876667 0.880000 0.883333 0.886667 0.890000 0.893333 0.896667 0.900000 0.903333 0.906667 0.910000 0.913333 0.916667 0.920000 0.923333 0.926667 0.930000 0.933333 0.936667 0.940000 0.943333 0.946667 0.950000 0.953333 0.956667 0.960000 0.963333 0.966667 0.970000 0.973333 0.976667 0.980000 0.983333 0.986667 0.990000 0.993333 0.996667 1.000000 
Z_COORDINATES 1 double
0
POINT_DATA 90601 
FIELD FieldData 1 
Concentração 1 90601 double 
0.000000 
0.000000 
0.000000 
0.000000 
0.000000 
0.000000 
0.000000 
0.000000 
0.000000 
0.000000 
0.000000 
0.000000 
0.000000 
0.000000 
0.000000 
0.000000 
0.000000 
0.000000 
0.000000 
0.000000 
0.000000 
0.000000 
0.000000 
0.000000 
0.000000 
0.000000 
0.000000 
0.000000 
0.000000 
0.000000 
0.000000 
0.000000 
0.000000 
0.000000 
0.000000 
0.000000 
0.000000 
0.000000 
0.000000 
0.000000 
0.000000 
0.000000 
0.000000 
0.000000 
0.000000 
0.000000 
0.000000 
0.000000 
0.000000 
0.000000 
0.000000 
0.000000 
0.000000 
0.000000 
0.000000 
0.000000 
0.000000 
0.000000 
0.000000 
0.000000 
0.000000 
0.000000 
0.000000 
0.000000 
0.000000 
0.000000 
0.000000 
0.000000 
0.000000 
0.000000 
0.000000 
0.000000 
0.000000 
0.000000 
0.000000 
0.000000 
0.000000 
0.000000 
0.000000 
0.000000 
0.000000 
0.000000 
0.000000 
0.000000 
0.000000 
0.000000 
0.000000 
0.000000 
0.000000 
0.000000 
0.000000 
0.000000 
0.000000 
0.000000 
0.000000 
0.000000 
0.000000 
0.000000 
0.000000 
0.000000 
0.000000 
0.000000 
0.000001 
0.000001 
0.000001 
0.000001 
0.000001 
0.000001 
0.000001 
0.000001 
0.000001 
0.000001 
0.000001 
0.000001 
0.000001 
0.000001 
0.000001 
0.000002 
0.000002 
0.000002 
0.000002 
0.000002 
0.000002 
0.000002 
0.000003 
0.000003 
0.000003 
0.000003 
0.000003 
0.000004 
0.000004 
0.000004 
0.000004 
0.000005 
0.000005 
0.000005 
0.000006 
0.000006 
0.000006 
0.000007 
0.000007 
0.000008 
0.000008 
0.000009 
0.000009 
0.000010 
0.000010 
0.000011 
0.000011 
0.000012 
0.000013 
0.000014 
0.000014 
0.000015 
0.000016 
0.000017 
0.000018 
0.000019 
0.000020 
0.000021 
0.000022 
0.000023 
0.000025 
0.000026 
0.000027 
0.000029 
0.000030 
0.000032 
0.000033 
0.000035 
0.000037 
0.000039 
0.000041 
0.000042 
0.000045 
0.000047 
0.000049 
0.000051 
0.000054 
0.000056 
0.000059 
0.000061 
0.000064 
0.000067 
0.000070 
0.000073 
0.000076 
0.000079 
0.000083 
0.000086 
0.000090 
0.000093 
0.000097 
0.000101 
0.000105 
0.000109 
0.000113 
0.000118 
0.000122 
0.000127 
0.000132 
0.000137 
0.000142 
0.000147 
0.000152 
0.000157 
0.000163 
0.000168 
0.000174 
0.000180 
0.000186 
0.000192 
0.000198 
0.000205 
0.000211 
0.000218 
0.000225 
0.000232 
0.000239 
0.000246 
0.000253 
0.000260 
0.000268 
0.000275 
0.000283 
0.000291 
0.000298 
0.000306 
0.000314 
0.000322 
0.000331 
0.000339 
0.000347 
0.000356 
0.000364 
0.000373 
0.000381 
0.000390 
0.000399 
0.000408 
0.000416 
0.000425 
0.000434 
0.000443 
0.000452 
0.000461 
0.000470 
0.000479 
0.000488 
0.000497 
0.000505 
0.000514 
0.000523 
0.000532 
0.000541 
0.000549 
0.000558 
0.000566 
0.000575 
0.000583 
0.000592 
0.000600 
0.000608 
0.000616 
0.000624 
0.000632 
0.000639 
0.000647 
0.000654 
0.000661 
0.000668 
0.000675 
0.000682 
0.000689 
0.000695 
0.000701 
0.000707 
0.000713 
0.000719 
0.000724 
0.000729 
0.000734 
0.000739 
0.000744 
0.000748 
0.000752 
0.000756 
0.000759 
0.000763 
0.000766 
0.000769 
0.000771 
0.000774 
0.000776 
0.000778 
0.000779 
0.000781 
0.000782 
0.000783 
0.000783 
0.000783 
0.000000 
0.000000 
0.000000 
0.000000 
0.000000 
0.000000 
0.000000 
0.000000 
0.000000 
0.000000 
0.000000 
0.000000 
0.000000 
0.000000 
0.000000 
0.000000 
0.000000 
0.000000 
0.000000 
0.000000 
0.000000 
0.000000 
0.000000 
0.000000 
0.000000 
0.000000 
0.000000 
0.000000 
0.000000 
0.000000 
0.000000 
0.000000 
0.000000 
0.000000 
0.000000 
0.000000 
0.000000 
0.000000 
0.000000 
0.000000 
0.000000 
0.000000 
0.000000 
0.000000 
0.000000 
0.000000 
0.000000 
0.000000 
0.000000 
0.000000 
0.000000 
0.000000 
0.000000 
0.000000 
0.000000 
0.000000 
0.000000 
0.000000 
0.000000 
0.000000 
0.000000 
0.000000 
0.000000 
0.000000 
0.000000 
0.000000 
0.000000 
0.000000 
0.000000 
0.000000 
0.000000 
0.000000 
0.000000 
0.000000 
0.000000 
0.000000 
0.000000 
0.000000 
0.000000 
0.000000 
0.000000 
0.000000 
0.000000 
0.000000 
0.000000 
0.000000 
0.000000 
0.000000 
0.000000 
0.000000 
0.000000 
0.000000 
0.000000 
0.000001 
0.000001 
0.000001 
0.000001 
0.000001 
0.000001 
0.000001 
0.000001 
0.000001 
0.000001 
0.000001 
0.000001 
0.000001 
0.000001 
0.000002 
0.000002 
0.000002 
0.000002 
0.000002 
0.000002 
0.000002 
0.000003 
0.000003 
0.000003 
0.000003 
0.000003 
0.000004 
0.000004 
0.000004 
0.000005 
0.000005 
0.000005 
0.000006 
0.000006 
0.000006 
0.000007 
0.000007 
0.000008 
0.000008 
0.000009 
0.000009 
0.000010 
0.000011 
0.000011 
0.000012 
0.000013 
0.000014 
0.000014 
0.000015 
0.000016 
0.000017 
0.000018 
0.000019 
0.000021 
0.000022 
0.000023 
0.000024 
0.000026 
0.000027 
0.000029 
0.000031 
0.000032 
0.000034 
0.000036 
0.000038 
0.000040 
0.000042 
0.000045 
0.000047 
0.000050 
0.000052 
0.000055 
0.000058 
0.000061 
0.000064 
0.000067 
0.000071 
0.000074 
0.000078 
0.000082 
0.000085 
0.000090 
0.000094 
0.000098 
0.000103 
0.000108 
0.000113 
0.000118 
0.000123 
0.000129 
0.000134 
0.000140 
0.000146 
0.000153 
0.000159 
0.000166 
0.000173 
0.000180 
0.000188 
0.000195 
0.000203 
0.000211 
0.000220 
0.000228 
0.000237 
0.000246 
0.000255 
0.000265 
0.000275 
0.000285 
0.000295 
0.000306 
0.000316 
0.000327 
0.000339 
0.000350 
0.000362 
0.000374 
0.000386 
0.000399 
0.000412 
0.000425 
0.000438 
0.000452 
0.000466 
0.000480 
0.000494 
0.000508 
0.000523 
0.000538 
0.000553 
0.000568 
0.000584 
0.000600 
0.000616 
0.000632 
0.000648 
0.000665 
0.000681 
0.000698 
0.000715 
0.000732 
0.000749 
0.000767 
0.000784 
0.000802 
0.000819 
0.000837 
0.000855 
0.000873 
0.000890 
0.000908 
0.000926 
0.000944 
0.000962 
0.000980 
0.000998 
0.001016 
0.001034 
0.001051 
0.001069 
0.001086 
0.001104 
0.001121 
0.001138 
0.001155 
0.001172 
0.001189 
0.001205 
0.001222 
0.001238 
0.001254 
0.001269 
0.001285 
0.001300 
0.001314 
0.001329 
0.001343 
0.001357 
0.001371 
0.001384 
0.001397 
0.001409 
0.001421 
0.001433 
0.001444 
0.001455 
0.001465 
0.001475 
0.001485 
0.001494 
0.001503 
0.001511 
0.001519 
0.001526 
0.001533 
0.001539 
0.001545 
0.001550 
0.001555 
0.001559 
0.001563 
0.001566 
0.001569 
0.001571 
0.001572 
0.001573 
0.001574 
0.000000 
0.000000 
0.000000 
0.000000 
0.000000 
0.000000 
0.000000 
0.000000 
0.000000 
0.000000 
0.000000 
0.000000 
0.000000 
0.000000 
0.000000 
0.000000 
0.000000 
0.000000 
0.000000 
0.000000 
0.000000 
0.000000 
0.000000 
0.000000 
0.000000 
0.000000 
0.000000 
0.000000 
0.000000 
0.000000 
0.000000 
0.000000 
0.000000 
0.000000 
0.000000 
0.000000 
0.000000 
0.000000 
0.000000 
0.000000 
0.000000 
0.000000 
0.000000 
0.000000 
0.000000 
0.000000 
0.000000 
0.000000 
0.000000 
0.000000 
0.000000 
0.000000 
0.000000 
0.000000 
0.000000 
0.000000 
0.000000 
0.000000 
0.000000 
0.000000 
0.000000 
0.000000 
0.000000 
0.000000 
0.000000 
0.000000 
0.000000 
0.000000 
0.000000 
0.000000 
0.000000 
0.000000 
0.000000 
0.000000 
0.000000 
0.000000 
0.000000 
0.000000 
0.000000 
0.000000 
0.000000 
0.000000 
0.000000 
0.000000 
0.000000 
0.000000 
0.000000 
0.000001 
0.000001 
0.000001 
0.000001 
0.000001 
0.000001 
0.000001 
0.000001 
0.000001 
0.000001 
0.000001 
0.000001 
0.000001 
0.000001 
0.000002 
0.000002 
0.000002 
0.000002 
0.000002 
0.000002 
0.000002 
0.000003 
0.000003 
0.000003 
0.000003 
0.000003 
0.000004 
0.000004 
0.000004 
0.000005 
0.000005 
0.000005 
0.000006 
0.000006 
0.000006 
0.000007 
0.000007 
0.000008 
0.000008 
0.000009 
0.000010 
0.000010 
0.000011 
0.000012 
0.000012 
0.000013 
0.000014 
0.000015 
0.000016 
0.000017 
0.000018 
0.000019 
0.000021 
0.000022 
0.000023 
0.000025 
0.000026 
0.000028 
0.000029 
0.000031 
0.000033 
0.000035 
0.000037 
0.000039 
0.000042 
0.000044 
0.000046 
0.000049 
0.000052 
0.000055 
0.000058 
0.000061 
0.000064 
0.000068 
0.000071 
0.000075 
0.000079 
0.000083 
0.000088 
0.000092 
0.000097 
0.000102 
0.000107 
0.000112 
0.000118 
0.000123 
0.000129 
0.000136 
0.000142 
0.000149 
0.000156 
0.000163 
0.000171 
0.000178 
0.000187 
0.000195 
0.000204 
0.000213 
0.000222 
0.000231 
0.000241 
0.000251 
0.000262 
0.000273 
0.000284 
0.000296 
0.000308 
0.000320 
0.000332 
0.000345 
0.000359 
0.000372 
0.000386 
0.000401 
0.000416 
0.000431 
0.000446 
0.000462 
0.000479 
0.000496 
0.000513 
0.000530 
0.000548 
0.000566 
0.000585 
0.000604 
0.000623 
0.000643 
0.000663 
0.000684 
0.000705 
0.000726 
0.000747 
0.000769 
0.000791 
0.000814 
0.000837 
0.000860 
0.000884 
0.000907 
0.000932 
0.000956 
0.000981 
0.001006 
0.001031 
0.001056 
0.001082 
0.001108 
0.001134 
0.001160 
0.001186 
0.001213 
0.001239 
0.001266 
0.001293 
0.001320 
0.001347 
0.001374 
0.001401 
0.001428 
0.001455 
0.001482 
0.001509 
0.001536 
0.001563 
0.001590 
0.001616 
0.001643 
0.001669 
0.001695 
0.001721 
0.001747 
0.001772 
0.001798 
0.001823 
0.001847 
0.001871 
0.001895 
0.001919 
0.001942 
0.001965 
0.001987 
0.002009 
0.002031 
0.002051 
0.002072 
0.002092 
0.002111 
0.002130 
0.002148 
0.002166 
0.002183 
0.002199 
0.002215 
0.002230 
0.002245 
0.002258 
0.002271 
0.002284 
0.002296 
0.002306 
0.002317 
0.002326 
0.002335 
0.002343 
0.002350 
0.002356 
0.002362 
0.002367 
0.002371 
0.002374 
0.002376 
0.002378 
0.002379 
0.000000 
0.000000 
0.000000 
0.000000 
0.000000 
0.000000 
0.000000 
0.000000 
0.000000 
0.000000 
0.000000 
0.000000 
0.000000 
0.000000 
0.000000 
0.000000 
0.000000 
0.000000 
0.000000 
0.000000 
0.000000 
0.000000 
0.000000 
0.000000 
0.000000 
0.000000 
0.000000 
0.000000 
0.000000 
0.000000 
0.000000 
0.000000 
0.000000 
0.000000 
0.000000 
0.000000 
0.000000 
0.000000 
0.000000 
0.000000 
0.000000 
0.000000 
0.000000 
0.000000 
0.000000 
0.000000 
0.000000 
0.000000 
0.000000 
0.000000 
0.000000 
0.000000 
0.000000 
0.000000 
0.000000 
0.000000 
0.000000 
0.000000 
0.000000 
0.000000 
0.000000 
0.000000 
0.000000 
0.000000 
0.000000 
0.000000 
0.000000 
0.000000 
0.000000 
0.000000 
0.000000 
0.000000 
0.000000 
0.000000 
0.000000 
0.000000 
0.000000 
0.000000 
0.000000 
0.000000 
0.000000 
0.000000 
0.000000 
0.000000 
0.000001 
0.000001 
0.000001 
0.000001 
0.000001 
0.000001 
0.000001 
0.000001 
0.000001 
0.000001 
0.000001 
0.000001 
0.000001 
0.000002 
0.000002 
0.000002 
0.000002 
0.000002 
0.000002 
0.000002 
0.000003 
0.000003 
0.000003 
0.000003 
0.000003 
0.000004 
0.000004 
0.000004 
0.000005 
0.000005 
0.000005 
0.000006 
0.000006 
0.000007 
0.000007 
0.000008 
0.000008 
0.000009 
0.000009 
0.000010 
0.000011 
0.000011 
0.000012 
0.000013 
0.000014 
0.000015 
0.000016 
0.000017 
0.000018 
0.000019 
0.000020 
0.000022 
0.000023 
0.000025 
0.000026 
0.000028 
0.000030 
0.000031 
0.000033 
0.000035 
0.000038 
0.000040 
0.000042 
0.000045 
0.000047 
0.000050 
0.000053 
0.000056 
0.000059 
0.000063 
0.000066 
0.000070 
0.000074 
0.000078 
0.000082 
0.000087 
0.000091 
0.000096 
0.000102 
0.000107 
0.000112 
0.000118 
0.000124 
0.000131 
0.000137 
0.000144 
0.000152 
0.000159 
0.000167 
0.000175 
0.000183 
0.000192 
0.000201 
0.000211 
0.000220 
0.000231 
0.000241 
0.000252 
0.000263 
0.000275 
0.000287 
0.000300 
0.000313 
0.000326 
0.000340 
0.000354 
0.000369 
0.000384 
0.000399 
0.000415 
0.000432 
0.000449 
0.000466 
0.000484 
0.000503 
0.000522 
0.000541 
0.000561 
0.000582 
0.000603 
0.000624 
0.000646 
0.000669 
0.000692 
0.000716 
0.000740 
0.000764 
0.000790 
0.000815 
0.000841 
0.000868 
0.000895 
0.000923 
0.000951 
0.000980 
0.001009 
0.001038 
0.001068 
0.001099 
0.001129 
0.001161 
0.001192 
0.001225 
0.001257 
0.001290 
0.001323 
0.001357 
0.001391 
0.001425 
0.001459 
0.001494 
0.001529 
0.001565 
0.001600 
0.001636 
0.001672 
0.001708 
0.001744 
0.001780 
0.001817 
0.001853 
0.001889 
0.001926 
0.001962 
0.001999 
0.002035 
0.002071 
0.002108 
0.002144 
0.002180 
0.002215 
0.002251 
0.002286 
0.002321 
0.002355 
0.002390 
0.002424 
0.002457 
0.002490 
0.002523 
0.002555 
0.002587 
0.002618 
0.002649 
0.002679 
0.002708 
0.002737 
0.002765 
0.002793 
0.002819 
0.002845 
0.002871 
0.002895 
0.002919 
0.002942 
0.002964 
0.002985 
0.003005 
0.003025 
0.003043 
0.003061 
0.003078 
0.003093 
0.003108 
0.003122 
0.003135 
0.003146 
0.003157 
0.003167 
0.003175 
0.003183 
0.003189 
0.003194 
0.003199 
0.003202 
0.003204 
0.003205 
0.000000 
0.000000 
0.000000 
0.000000 
0.000000 
0.000000 
0.000000 
0.000000 
0.000000 
0.000000 
0.000000 
0.000000 
0.000000 
0.000000 
0.000000 
0.000000 
0.000000 
0.000000 
0.000000 
0.000000 
0.000000 
0.000000 
0.000000 
0.000000 
0.000000 
0.000000 
0.000000 
0.000000 
0.000000 
0.000000 
0.000000 
0.000000 
0.000000 
0.000000 
0.000000 
0.000000 
0.000000 
0.000000 
0.000000 
0.000000 
0.000000 
0.000000 
0.000000 
0.000000 
0.000000 
0.000000 
0.000000 
0.000000 
0.000000 
0.000000 
0.000000 
0.000000 
0.000000 
0.000000 
0.000000 
0.000000 
0.000000 
0.000000 
0.000000 
0.000000 
0.000000 
0.000000 
0.000000 
0.000000 
0.000000 
0.000000 
0.000000 
0.000000 
0.000000 
0.000000 
0.000000 
0.000000 
0.000000 
0.000000 
0.000000 
0.000000 
0.000000 
0.000000 
0.000000 
0.000000 
0.000000 
0.000001 
0.000001 
0.000001 
0.000001 
0.000001 
0.000001 
0.000001 
0.000001 
0.000001 
0.000001 
0.000001 
0.000001 
0.000001 
0.000002 
0.000002 
0.000002 
0.000002 
0.000002 
0.000002 
0.000002 
0.000003 
0.000003 
0.000003 
0.000003 
0.000004 
0.000004 
0.000004 
0.000004 
0.000005 
0.000005 
0.000005 
0.000006 
0.000006 
0.000007 
0.000007 
0.000008 
0.000008 
0.000009 
0.000010 
0.000010 
0.000011 
0.000012 
0.000013 
0.000014 
0.000014 
0.000015 
0.000017 
0.000018 
0.000019 
0.000020 
0.000021 
0.000023 
0.000024 
0.000026 
0.000028 
0.000029 
0.000031 
0.000033 
0.000035 
0.000038 
0.000040 
0.000042 
0.000045 
0.000048 
0.000051 
0.000054 
0.000057 
0.000060 
0.000064 
0.000067 
0.000071 
0.000075 
0.000080 
0.000084 
0.000089 
0.000094 
0.000099 
0.000105 
0.000110 
0.000116 
0.000123 
0.000129 
0.000136 
0.000143 
0.000150 
0.000158 
0.000166 
0.000175 
0.000184 
0.000193 
0.000202 
0.000212 
0.000222 
0.000233 
0.000244 
0.000256 
0.000268 
0.000280 
0.000293 
0.000307 
0.000320 
0.000335 
0.000350 
0.000365 
0.000381 
0.000397 
0.000414 
0.000432 
0.000450 
0.000468 
0.000488 
0.000507 
0.000528 
0.000549 
0.000570 
0.000593 
0.000616 
0.000639 
0.000663 
0.000688 
0.000713 
0.000739 
0.000766 
0.000793 
0.000821 
0.000850 
0.000879 
0.000909 
0.000940 
0.000971 
0.001003 
0.001035 
0.001068 
0.001102 
0.001137 
0.001172 
0.001207 
0.001244 
0.001281 
0.001318 
0.001356 
0.001395 
0.001434 
0.001473 
0.001514 
0.001554 
0.001596 
0.001637 
0.001679 
0.001722 
0.001765 
0.001808 
0.001852 
0.001896 
0.001940 
0.001985 
0.002030 
0.002075 
0.002121 
0.002166 
0.002212 
0.002258 
0.002304 
0.002350 
0.002397 
0.002443 
0.002489 
0.002535 
0.002581 
0.002627 
0.002673 
0.002718 
0.002764 
0.002809 
0.002854 
0.002898 
0.002942 
0.002986 
0.003030 
0.003073 
0.003115 
0.003157 
0.003198 
0.003239 
0.003279 
0.003318 
0.003357 
0.003395 
0.003432 
0.003469 
0.003504 
0.003539 
0.003573 
0.003606 
0.003638 
0.003669 
0.003699 
0.003728 
0.003756 
0.003783 
0.003808 
0.003833 
0.003856 
0.003879 
0.003900 
0.003920 
0.003938 
0.003955 
0.003972 
0.003986 
0.004000 
0.004012 
0.004023 
0.004032 
0.004040 
0.004047 
0.004053 
0.004057 
0.004060 
0.004061 
0.000000 
0.000000 
0.000000 
0.000000 
0.000000 
0.000000 
0.000000 
0.000000 
0.000000 
0.000000 
0.000000 
0.000000 
0.000000 
0.000000 
0.000000 
0.000000 
0.000000 
0.000000 
0.000000 
0.000000 
0.000000 
0.000000 
0.000000 
0.000000 
0.000000 
0.000000 
0.000000 
0.000000 
0.000000 
0.000000 
0.000000 
0.000000 
0.000000 
0.000000 
0.000000 
0.000000 
0.000000 
0.000000 
0.000000 
0.000000 
0.000000 
0.000000 
0.000000 
0.000000 
0.000000 
0.000000 
0.000000 
0.000000 
0.000000 
0.000000 
0.000000 
0.000000 
0.000000 
0.000000 
0.000000 
0.000000 
0.000000 
0.000000 
0.000000 
0.000000 
0.000000 
0.000000 
0.000000 
0.000000 
0.000000 
0.000000 
0.000000 
0.000000 
0.000000 
0.000000 
0.000000 
0.000000 
0.000000 
0.000000 
0.000000 
0.000000 
0.000000 
0.000000 
0.000000 
0.000001 
0.000001 
0.000001 
0.000001 
0.000001 
0.000001 
0.000001 
0.000001 
0.000001 
0.000001 
0.000001 
0.000001 
0.000001 
0.000002 
0.000002 
0.000002 
0.000002 
0.000002 
0.000002 
0.000003 
0.000003 
0.000003 
0.000003 
0.000003 
0.000004 
0.000004 
0.000004 
0.000005 
0.000005 
0.000005 
0.000006 
0.000006 
0.000007 
0.000007 
0.000008 
0.000008 
0.000009 
0.000010 
0.000010 
0.000011 
0.000012 
0.000013 
0.000014 
0.000015 
0.000016 
0.000017 
0.000018 
0.000019 
0.000020 
0.000022 
0.000023 
0.000025 
0.000026 
0.000028 
0.000030 
0.000032 
0.000034 
0.000036 
0.000038 
0.000041 
0.000043 
0.000046 
0.000049 
0.000052 
0.000055 
0.000059 
0.000062 
0.000066 
0.000070 
0.000074 
0.000078 
0.000083 
0.000087 
0.000093 
0.000098 
0.000103 
0.000109 
0.000115 
0.000122 
0.000128 
0.000135 
0.000143 
0.000150 
0.000158 
0.000167 
0.000175 
0.000184 
0.000194 
0.000204 
0.000214 
0.000225 
0.000236 
0.000248 
0.000260 
0.000272 
0.000286 
0.000299 
0.000313 
0.000328 
0.000343 
0.000359 
0.000375 
0.000392 
0.000410 
0.000428 
0.000447 
0.000466 
0.000486 
0.000507 
0.000529 
0.000551 
0.000574 
0.000597 
0.000621 
0.000646 
0.000672 
0.000698 
0.000725 
0.000753 
0.000782 
0.000812 
0.000842 
0.000873 
0.000905 
0.000937 
0.000971 
0.001005 
0.001040 
0.001076 
0.001112 
0.001150 
0.001188 
0.001227 
0.001266 
0.001307 
0.001348 
0.001390 
0.001433 
0.001477 
0.001521 
0.001566 
0.001612 
0.001658 
0.001705 
0.001753 
0.001801 
0.001850 
0.001900 
0.001950 
0.002001 
0.002053 
0.002105 
0.002157 
0.002210 
0.002263 
0.002317 
0.002371 
0.002426 
0.002480 
0.002536 
0.002591 
0.002647 
0.002702 
0.002758 
0.002815 
0.002871 
0.002927 
0.002983 
0.003040 
0.003096 
0.003152 
0.003208 
0.003264 
0.003319 
0.003374 
0.003429 
0.003484 
0.003538 
0.003592 
0.003645 
0.003698 
0.003750 
0.003802 
0.003853 
0.003903 
0.003953 
0.004002 
0.004050 
0.004097 
0.004143 
0.004189 
0.004233 
0.004276 
0.004318 
0.004360 
0.004400 
0.004439 
0.004476 
0.004513 
0.004548 
0.004582 
0.004615 
0.004646 
0.004676 
0.004704 
0.004731 
0.004757 
0.004781 
0.004804 
0.004825 
0.004844 
0.004862 
0.004879 
0.004894 
0.004907 
0.004918 
0.004928 
0.004937 
0.004943 
0.004948 
0.004952 
0.004953 
0.000000 
0.000000 
0.000000 
0.000000 
0.000000 
0.000000 
0.000000 
0.000000 
0.000000 
0.000000 
0.000000 
0.000000 
0.000000 
0.000000 
0.000000 
0.000000 
0.000000 
0.000000 
0.000000 
0.000000 
0.000000 
0.000000 
0.000000 
0.000000 
0.000000 
0.000000 
0.000000 
0.000000 
0.000000 
0.000000 
0.000000 
0.000000 
0.000000 
0.000000 
0.000000 
0.000000 
0.000000 
0.000000 
0.000000 
0.000000 
0.000000 
0.000000 
0.000000 
0.000000 
0.000000 
0.000000 
0.000000 
0.000000 
0.000000 
0.000000 
0.000000 
0.000000 
0.000000 
0.000000 
0.000000 
0.000000 
0.000000 
0.000000 
0.000000 
0.000000 
0.000000 
0.000000 
0.000000 
0.000000 
0.000000 
0.000000 
0.000000 
0.000000 
0.000000 
0.000000 
0.000000 
0.000000 
0.000000 
0.000000 
0.000000 
0.000000 
0.000001 
0.000001 
0.000001 
0.000001 
0.000001 
0.000001 
0.000001 
0.000001 
0.000001 
0.000001 
0.000001 
0.000001 
0.000001 
0.000001 
0.000002 
0.000002 
0.000002 
0.000002 
0.000002 
0.000002 
0.000003 
0.000003 
0.000003 
0.000003 
0.000004 
0.000004 
0.000004 
0.000004 
0.000005 
0.000005 
0.000006 
0.000006 
0.000006 
0.000007 
0.000007 
0.000008 
0.000009 
0.000009 
0.000010 
0.000011 
0.000011 
0.000012 
0.000013 
0.000014 
0.000015 
0.000016 
0.000017 
0.000019 
0.000020 
0.000021 
0.000023 
0.000024 
0.000026 
0.000028 
0.000029 
0.000031 
0.000034 
0.000036 
0.000038 
0.000041 
0.000043 
0.000046 
0.000049 
0.000052 
0.000055 
0.000059 
0.000062 
0.000066 
0.000070 
0.000074 
0.000079 
0.000083 
0.000088 
0.000093 
0.000099 
0.000105 
0.000111 
0.000117 
0.000124 
0.000131 
0.000138 
0.000145 
0.000153 
0.000162 
0.000170 
0.000180 
0.000189 
0.000199 
0.000210 
0.000220 
0.000232 
0.000244 
0.000256 
0.000269 
0.000282 
0.000296 
0.000311 
0.000326 
0.000341 
0.000358 
0.000374 
0.000392 
0.000410 
0.000429 
0.000449 
0.000469 
0.000490 
0.000511 
0.000534 
0.000557 
0.000581 
0.000606 
0.000631 
0.000658 
0.000685 
0.000713 
0.000742 
0.000772 
0.000802 
0.000834 
0.000866 
0.000900 
0.000934 
0.000969 
0.001005 
0.001042 
0.001080 
0.001119 
0.001159 
0.001199 
0.001241 
0.001284 
0.001327 
0.001372 
0.001417 
0.001464 
0.001511 
0.001559 
0.001608 
0.001658 
0.001709 
0.001761 
0.001814 
0.001868 
0.001922 
0.001977 
0.002033 
0.002090 
0.002148 
0.002206 
0.002265 
0.002325 
0.002385 
0.002447 
0.002508 
0.002571 
0.002634 
0.002697 
0.002761 
0.002825 
0.002890 
0.002955 
0.003021 
0.003087 
0.003153 
0.003219 
0.003286 
0.003352 
0.003419 
0.003486 
0.003553 
0.003620 
0.003686 
0.003753 
0.003819 
0.003886 
0.003952 
0.004017 
0.004083 
0.004147 
0.004212 
0.004276 
0.004339 
0.004402 
0.004464 
0.004525 
0.004585 
0.004645 
0.004704 
0.004762 
0.004819 
0.004875 
0.004929 
0.004983 
0.005036 
0.005087 
0.005137 
0.005186 
0.005234 
0.005280 
0.005325 
0.005368 
0.005410 
0.005450 
0.005489 
0.005526 
0.005561 
0.005595 
0.005627 
0.005657 
0.005686 
0.005713 
0.005738 
0.005761 
0.005782 
0.005801 
0.005819 
0.005835 
0.005848 
0.005860 
0.005870 
0.005878 
0.005884 
0.005888 
0.005890 
0.000000 
0.000000 
0.000000 
0.000000 
0.000000 
0.000000 
0.000000 
0.000000 
0.000000 
0.000000 
0.000000 
0.000000 
0.000000 
0.000000 
0.000000 
0.000000 
0.000000 
0.000000 
0.000000 
0.000000 
0.000000 
0.000000 
0.000000 
0.000000 
0.000000 
0.000000 
0.000000 
0.000000 
0.000000 
0.000000 
0.000000 
0.000000 
0.000000 
0.000000 
0.000000 
0.000000 
0.000000 
0.000000 
0.000000 
0.000000 
0.000000 
0.000000 
0.000000 
0.000000 
0.000000 
0.000000 
0.000000 
0.000000 
0.000000 
0.000000 
0.000000 
0.000000 
0.000000 
0.000000 
0.000000 
0.000000 
0.000000 
0.000000 
0.000000 
0.000000 
0.000000 
0.000000 
0.000000 
0.000000 
0.000000 
0.000000 
0.000000 
0.000000 
0.000000 
0.000000 
0.000000 
0.000000 
0.000000 
0.000000 
0.000000 
0.000001 
0.000001 
0.000001 
0.000001 
0.000001 
0.000001 
0.000001 
0.000001 
0.000001 
0.000001 
0.000001 
0.000001 
0.000001 
0.000002 
0.000002 
0.000002 
0.000002 
0.000002 
0.000002 
0.000003 
0.000003 
0.000003 
0.000003 
0.000004 
0.000004 
0.000004 
0.000005 
0.000005 
0.000005 
0.000006 
0.000006 
0.000007 
0.000007 
0.000008 
0.000008 
0.000009 
0.000009 
0.000010 
0.000011 
0.000012 
0.000013 
0.000014 
0.000014 
0.000016 
0.000017 
0.000018 
0.000019 
0.000020 
0.000022 
0.000023 
0.000025 
0.000027 
0.000029 
0.000030 
0.000033 
0.000035 
0.000037 
0.000039 
0.000042 
0.000045 
0.000048 
0.000051 
0.000054 
0.000057 
0.000061 
0.000065 
0.000069 
0.000073 
0.000078 
0.000082 
0.000087 
0.000092 
0.000098 
0.000104 
0.000110 
0.000116 
0.000123 
0.000130 
0.000138 
0.000145 
0.000153 
0.000162 
0.000171 
0.000180 
0.000190 
0.000200 
0.000211 
0.000222 
0.000234 
0.000246 
0.000259 
0.000272 
0.000286 
0.000301 
0.000316 
0.000332 
0.000348 
0.000365 
0.000383 
0.000401 
0.000420 
0.000440 
0.000460 
0.000482 
0.000504 
0.000527 
0.000551 
0.000575 
0.000601 
0.000627 
0.000654 
0.000682 
0.000711 
0.000741 
0.000772 
0.000804 
0.000837 
0.000871 
0.000906 
0.000942 
0.000978 
0.001016 
0.001055 
0.001096 
0.001137 
0.001179 
0.001222 
0.001267 
0.001312 
0.001359 
0.001407 
0.001455 
0.001505 
0.001556 
0.001608 
0.001662 
0.001716 
0.001771 
0.001828 
0.001885 
0.001944 
0.002003 
0.002064 
0.002126 
0.002188 
0.002252 
0.002317 
0.002382 
0.002449 
0.002516 
0.002584 
0.002653 
0.002723 
0.002794 
0.002865 
0.002937 
0.003010 
0.003084 
0.003158 
0.003232 
0.003307 
0.003383 
0.003459 
0.003536 
0.003613 
0.003690 
0.003767 
0.003845 
0.003923 
0.004000 
0.004078 
0.004156 
0.004234 
0.004312 
0.004390 
0.004467 
0.004545 
0.004621 
0.004698 
0.004774 
0.004850 
0.004925 
0.004999 
0.005073 
0.005146 
0.005218 
0.005289 
0.005360 
0.005429 
0.005498 
0.005565 
0.005632 
0.005697 
0.005761 
0.005823 
0.005884 
0.005944 
0.006003 
0.006060 
0.006115 
0.006169 
0.006221 
0.006271 
0.006320 
0.006366 
0.006411 
0.006455 
0.006496 
0.006535 
0.006572 
0.006608 
0.006641 
0.006672 
0.006701 
0.006728 
0.006753 
0.006776 
0.006796 
0.006814 
0.006830 
0.006844 
0.006855 
0.006864 
0.006871 
0.006876 
0.006878 
0.000000 
0.000000 
0.000000 
0.000000 
0.000000 
0.000000 
0.000000 
0.000000 
0.000000 
0.000000 
0.000000 
0.000000 
0.000000 
0.000000 
0.000000 
0.000000 
0.000000 
0.000000 
0.000000 
0.000000 
0.000000 
0.000000 
0.000000 
0.000000 
0.000000 
0.000000 