# vtk DataFile Version 3.0
results.vtk
ASCII
DATASET RECTILINEAR_GRID
DIMENSIONS 301 301 1
X_COORDINATES 301 double
0.000000 0.003333 0.006667 0.010000 0.013333 0.016667 0.020000 0.023333 0.026667 0.030000 0.033333 0.036667 0.040000 0.043333 0.046667 0.050000 0.053333 0.056667 0.060000 0.063333 0.066667 0.070000 0.073333 0.076667 0.080000 0.083333 0.086667 0.090000 0.093333 0.096667 0.100000 0.103333 0.106667 0.110000 0.113333 0.116667 0.120000 0.123333 0.126667 0.130000 0.133333 0.136667 0.140000 0.143333 0.146667 0.150000 0.153333 0.156667 0.160000 0.163333 0.166667 0.170000 0.173333 0.176667 0.180000 0.183333 0.186667 0.190000 0.193333 0.196667 0.200000 0.203333 0.206667 0.210000 0.213333 0.216667 0.220000 0.223333 0.226667 0.230000 0.233333 0.236667 0.240000 0.243333 0.246667 0.250000 0.253333 0.256667 0.260000 0.263333 0.266667 0.270000 0.273333 0.276667 0.280000 0.283333 0.286667 0.290000 0.293333 0.296667 0.300000 0.303333 0.306667 0.310000 0.313333 0.316667 0.320000 0.323333 0.326667 0.330000 0.333333 0.336667 0.340000 0.343333 0.346667 0.350000 0.353333 0.356667 0.360000 0.363333 0.366667 0.370000 0.373333 0.376667 0.380000 0.383333 0.386667 0.390000 0.393333 0.396667 0.400000 0.403333 0.406667 0.410000 0.413333 0.416667 0.420000 0.423333 0.426667 0.430000 0.433333 0.436667 0.440000 0.443333 0.446667 0.450000 0.453333 0.456667 0.460000 0.463333 0.466667 0.470000 0.473333 0.476667 0.480000 0.483333 0.486667 0.490000 0.493333 0.496667 0.500000 0.503333 0.506667 0.510000 0.513333 0.516667 0.520000 0.523333 0.526667 0.530000 0.533333 0.536667 0.540000 0.543333 0.546667 0.550000 0.553333 0.556667 0.560000 0.563333 0.566667 0.570000 0.573333 0.576667 0.580000 0.583333 0.586667 0.590000 0.593333 0.596667 0.600000 0.603333 0.606667 0.610000 0.613333 0.616667 0.620000 0.623333 0.626667 0.630000 0.633333 0.636667 0.640000 0.643333 0.646667 0.650000 0.653333 0.656667 0.660000 0.663333 0.666667 0.670000 0.673333 0.676667 0.680000 0.683333 0.686667 0.690000 0.693333 0.696667 0.700000 0.703333 0.706667 0.710000 0.713333 0.716667 0.720000 0.723333 0.726667 0.730000 0.733333 0.736667 0.740000 0.743333 0.746667 0.750000 0.753333 0.756667 0.760000 0.763333 0.766667 0.770000 0.773333 0.776667 0.780000 0.783333 0.786667 0.790000 0.793333 0.796667 0.800000 0.803333 0.806667 0.810000 0.813333 0.816667 0.820000 0.823333 0.826667 0.830000 0.833333 0.836667 0.840000 0.843333 0.846667 0.850000 0.853333 0.856667 0.860000 0.863333 0.866667 0.870000 0.873333 0.876667 0.880000 0.883333 0.886667 0.890000 0.893333 0.896667 0.900000 0.903333 0.906667 0.910000 0.913333 0.916667 0.920000 0.923333 0.926667 0.930000 0.933333 0.936667 0.940000 0.943333 0.946667 0.950000 0.953333 0.956667 0.960000 0.963333 0.966667 0.970000 0.973333 0.976667 0.980000 0.983333 0.986667 0.990000 0.993333 0.996667 1.000000 
Y_COORDINATES 301 double
0.000000 0.003333 0.006667 0.010000 0.013333 0.016667 0.020000 0.023333 0.026667 0.030000 0.033333 0.036667 0.040000 0.043333 0.046667 0.050000 0.053333 0.056667 0.060000 0.063333 0.066667 0.070000 0.073333 0.076667 0.080000 0.083333 0.086667 0.090000 0.093333 0.096667 0.100000 0.103333 0.106667 0.110000 0.113333 0.116667 0.120000 0.123333 0.126667 0.130000 0.133333 0.136667 0.140000 0.143333 0.146667 0.150000 0.153333 0.156667 0.160000 0.163333 0.166667 0.170000 0.173333 0.176667 0.180000 0.183333 0.186667 0.190000 0.193333 0.196667 0.200000 0.203333 0.206667 0.210000 0.213333 0.216667 0.220000 0.223333 0.226667 0.230000 0.233333 0.236667 0.240000 0.243333 0.246667 0.250000 0.253333 0.256667 0.260000 0.263333 0.266667 0.270000 0.273333 0.276667 0.280000 0.283333 0.286667 0.290000 0.293333 0.296667 0.300000 0.303333 0.306667 0.310000 0.313333 0.316667 0.320000 0.323333 0.326667 0.330000 0.333333 0.336667 0.340000 0.343333 0.346667 0.350000 0.353333 0.356667 0.360000 0.363333 0.366667 0.370000 0.373333 0.376667 0.380000 0.383333 0.386667 0.390000 0.393333 0.396667 0.400000 0.403333 0.406667 0.410000 0.413333 0.416667 0.420000 0.423333 0.426667 0.430000 0.433333 0.436667 0.440000 0.443333 0.446667 0.450000 0.453333 0.456667 0.460000 0.463333 0.466667 0.470000 0.473333 0.476667 0.480000 0.483333 0.486667 0.490000 0.493333 0.496667 0.500000 0.503333 0.506667 0.510000 0.513333 0.516667 0.520000 0.523333 0.526667 0.530000 0.533333 0.536667 0.540000 0.543333 0.546667 0.550000 0.553333 0.556667 0.560000 0.563333 0.566667 0.570000 0.573333 0.576667 0.580000 0.583333 0.586667 0.590000 0.593333 0.596667 0.600000 0.603333 0.606667 0.610000 0.613333 0.616667 0.620000 0.623333 0.626667 0.630000 0.633333 0.636667 0.640000 0.643333 0.646667 0.650000 0.653333 0.656667 0.660000 0.663333 0.666667 0.670000 0.673333 0.676667 0.680000 0.683333 0.686667 0.690000 0.693333 0.696667 0.700000 0.703333 0.706667 0.710000 0.713333 0.716667 0.720000 0.723333 0.726667 0.730000 0.733333 0.736667 0.740000 0.743333 0.746667 0.750000 0.753333 0.756667 0.760000 0.763333 0.766667 0.770000 0.773333 0.776667 0.780000 0.783333 0.786667 0.790000 0.793333 0.796667 0.800000 0.803333 0.806667 0.810000 0.813333 0.816667 0.820000 0.823333 0.826667 0.830000 0.833333 0.836667 0.840000 0.843333 0.846667 0.850000 0.853333 0.856667 0.860000 0.863333 0.866667 0.870000 0.873333 0.876667 0.880000 0.883333 0.886667 0.890000 0.893333 0.896667 0.900000 0.903333 0.906667 0.910000 0.913333 0.916667 0.920000 0.923333 0.926667 0.930000 0.933333 0.936667 0.940000 0.943333 0.946667 0.950000 0.953333 0.956667 0.960000 0.963333 0.966667 0.970000 0.973333 0.976667 0.980000 0.983333 0.986667 0.990000 0.993333 0.996667 1.000000 
Z_COORDINATES 1 double
0
POINT_DATA 90601 
FIELD FieldData 1 
Concentração 1 90601 double 
0.000000 
0.000000 
0.000000 
0.000000 
0.000000 
0.000000 
0.000000 
0.000000 
0.000000 
0.000000 
0.000000 
0.000000 
0.000000 
0.000000 
0.000000 
0.000000 
0.000000 
0.000000 
0.000000 
0.000000 
0.000000 
0.000000 
0.000000 
0.000000 
0.000000 
0.000000 
0.000000 
0.000000 
0.000000 
0.000000 
0.000000 
0.000000 
0.000000 
0.000000 
0.000000 
0.000000 
0.000000 
0.000000 
0.000000 
0.000000 
0.000000 
0.000000 
0.000000 
0.000000 
0.000000 
0.000000 
0.000000 
0.000000 
0.000000 
0.000000 
0.000000 
0.000000 
0.000000 
0.000000 
0.000000 
0.000000 
0.000000 
0.000000 
0.000000 
0.000000 
0.000000 
0.000000 
0.000000 
0.000000 
0.000000 
0.000000 
0.000000 
0.000000 
0.000000 
0.000000 
0.000000 
0.000000 
0.000000 
0.000000 
0.000000 
0.000000 
0.000000 
0.000000 
0.000000 
0.000000 
0.000000 
0.000000 
0.000000 
0.000000 
0.000000 
0.000000 
0.000000 
0.000000 
0.000000 
0.000000 
0.000000 
0.000000 
0.000000 
0.000000 
0.000000 
0.000000 
0.000000 
0.000000 
0.000000 
0.000001 
0.000001 
0.000001 
0.000001 
0.000001 
0.000001 
0.000001 
0.000001 
0.000001 
0.000001 
0.000001 
0.000001 
0.000001 
0.000001 
0.000001 
0.000001 
0.000002 
0.000002 
0.000002 
0.000002 
0.000002 
0.000002 
0.000002 
0.000002 
0.000003 
0.000003 
0.000003 
0.000003 
0.000003 
0.000004 
0.000004 
0.000004 
0.000004 
0.000005 
0.000005 
0.000005 
0.000005 
0.000006 
0.000006 
0.000006 
0.000007 
0.000007 
0.000008 
0.000008 
0.000009 
0.000009 
0.000010 
0.000010 
0.000011 
0.000011 
0.000012 
0.000012 
0.000013 
0.000014 
0.000015 
0.000015 
0.000016 
0.000017 
0.000018 
0.000019 
0.000020 
0.000021 
0.000022 
0.000023 
0.000024 
0.000025 
0.000026 
0.000028 
0.000029 
0.000030 
0.000032 
0.000033 
0.000035 
0.000036 
0.000038 
0.000040 
0.000041 
0.000043 
0.000045 
0.000047 
0.000049 
0.000051 
0.000053 
0.000055 
0.000057 
0.000060 
0.000062 
0.000065 
0.000067 
0.000070 
0.000072 
0.000075 
0.000078 
0.000081 
0.000084 
0.000087 
0.000090 
0.000093 
0.000096 
0.000099 
0.000103 
0.000106 
0.000110 
0.000113 
0.000117 
0.000121 
0.000125 
0.000128 
0.000132 
0.000136 
0.000141 
0.000145 
0.000149 
0.000153 
0.000158 
0.000162 
0.000167 
0.000171 
0.000176 
0.000180 
0.000185 
0.000190 
0.000195 
0.000200 
0.000205 
0.000210 
0.000215 
0.000220 
0.000225 
0.000230 
0.000235 
0.000240 
0.000246 
0.000251 
0.000256 
0.000262 
0.000267 
0.000272 
0.000278 
0.000283 
0.000288 
0.000294 
0.000299 
0.000305 
0.000310 
0.000315 
0.000321 
0.000326 
0.000331 
0.000337 
0.000342 
0.000347 
0.000352 
0.000357 
0.000362 
0.000368 
0.000373 
0.000378 
0.000382 
0.000387 
0.000392 
0.000397 
0.000402 
0.000406 
0.000411 
0.000415 
0.000419 
0.000424 
0.000428 
0.000432 
0.000436 
0.000440 
0.000444 
0.000448 
0.000451 
0.000455 
0.000458 
0.000461 
0.000465 
0.000468 
0.000471 
0.000473 
0.000476 
0.000479 
0.000481 
0.000484 
0.000486 
0.000488 
0.000490 
0.000492 
0.000493 
0.000495 
0.000496 
0.000497 
0.000499 
0.000500 
0.000500 
0.000501 
0.000502 
0.000502 
0.000502 
0.000503 
0.000000 
0.000000 
0.000000 
0.000000 
0.000000 
0.000000 
0.000000 
0.000000 
0.000000 
0.000000 
0.000000 
0.000000 
0.000000 
0.000000 
0.000000 
0.000000 
0.000000 
0.000000 
0.000000 
0.000000 
0.000000 
0.000000 
0.000000 
0.000000 
0.000000 
0.000000 
0.000000 
0.000000 
0.000000 
0.000000 
0.000000 
0.000000 
0.000000 
0.000000 
0.000000 
0.000000 
0.000000 
0.000000 
0.000000 
0.000000 
0.000000 
0.000000 
0.000000 
0.000000 
0.000000 
0.000000 
0.000000 
0.000000 
0.000000 
0.000000 
0.000000 
0.000000 
0.000000 
0.000000 
0.000000 
0.000000 
0.000000 
0.000000 
0.000000 
0.000000 
0.000000 
0.000000 
0.000000 
0.000000 
0.000000 
0.000000 
0.000000 
0.000000 
0.000000 
0.000000 
0.000000 
0.000000 
0.000000 
0.000000 
0.000000 
0.000000 
0.000000 
0.000000 
0.000000 
0.000000 
0.000000 
0.000000 
0.000000 
0.000000 
0.000000 
0.000000 
0.000000 
0.000000 
0.000000 
0.000000 
0.000001 
0.000001 
0.000001 
0.000001 
0.000001 
0.000001 
0.000001 
0.000001 
0.000001 
0.000001 
0.000001 
0.000001 
0.000001 
0.000001 
0.000001 
0.000002 
0.000002 
0.000002 
0.000002 
0.000002 
0.000002 
0.000002 
0.000003 
0.000003 
0.000003 
0.000003 
0.000003 
0.000004 
0.000004 
0.000004 
0.000004 
0.000005 
0.000005 
0.000005 
0.000006 
0.000006 
0.000006 
0.000007 
0.000007 
0.000008 
0.000008 
0.000009 
0.000009 
0.000010 
0.000010 
0.000011 
0.000012 
0.000012 
0.000013 
0.000014 
0.000014 
0.000015 
0.000016 
0.000017 
0.000018 
0.000019 
0.000020 
0.000021 
0.000023 
0.000024 
0.000025 
0.000026 
0.000028 
0.000029 
0.000031 
0.000033 
0.000034 
0.000036 
0.000038 
0.000040 
0.000042 
0.000044 
0.000046 
0.000048 
0.000051 
0.000053 
0.000056 
0.000058 
0.000061 
0.000064 
0.000067 
0.000070 
0.000073 
0.000076 
0.000079 
0.000083 
0.000087 
0.000090 
0.000094 
0.000098 
0.000102 
0.000106 
0.000111 
0.000115 
0.000120 
0.000125 
0.000130 
0.000135 
0.000140 
0.000145 
0.000151 
0.000156 
0.000162 
0.000168 
0.000174 
0.000180 
0.000186 
0.000193 
0.000200 
0.000206 
0.000213 
0.000220 
0.000228 
0.000235 
0.000243 
0.000250 
0.000258 
0.000266 
0.000274 
0.000282 
0.000291 
0.000299 
0.000308 
0.000317 
0.000325 
0.000335 
0.000344 
0.000353 
0.000362 
0.000372 
0.000381 
0.000391 
0.000401 
0.000411 
0.000421 
0.000431 
0.000441 
0.000451 
0.000462 
0.000472 
0.000483 
0.000493 
0.000504 
0.000514 
0.000525 
0.000536 
0.000546 
0.000557 
0.000568 
0.000579 
0.000589 
0.000600 
0.000611 
0.000622 
0.000632 
0.000643 
0.000654 
0.000664 
0.000675 
0.000686 
0.000696 
0.000706 
0.000717 
0.000727 
0.000737 
0.000747 
0.000757 
0.000767 
0.000777 
0.000786 
0.000796 
0.000805 
0.000814 
0.000824 
0.000832 
0.000841 
0.000850 
0.000858 
0.000866 
0.000874 
0.000882 
0.000890 
0.000897 
0.000905 
0.000912 
0.000919 
0.000925 
0.000932 
0.000938 
0.000944 
0.000949 
0.000955 
0.000960 
0.000965 
0.000969 
0.000974 
0.000978 
0.000982 
0.000986 
0.000989 
0.000992 
0.000995 
0.000997 
0.001000 
0.001002 
0.001003 
0.001005 
0.001006 
0.001007 
0.001007 
0.001008 
0.000000 
0.000000 
0.000000 
0.000000 
0.000000 
0.000000 
0.000000 
0.000000 
0.000000 
0.000000 
0.000000 
0.000000 
0.000000 
0.000000 
0.000000 
0.000000 
0.000000 
0.000000 
0.000000 
0.000000 
0.000000 
0.000000 
0.000000 
0.000000 
0.000000 
0.000000 
0.000000 
0.000000 
0.000000 
0.000000 
0.000000 
0.000000 
0.000000 
0.000000 
0.000000 
0.000000 
0.000000 
0.000000 
0.000000 
0.000000 
0.000000 
0.000000 
0.000000 
0.000000 
0.000000 
0.000000 
0.000000 
0.000000 
0.000000 
0.000000 
0.000000 
0.000000 
0.000000 
0.000000 
0.000000 
0.000000 
0.000000 
0.000000 
0.000000 
0.000000 
0.000000 
0.000000 
0.000000 
0.000000 
0.000000 
0.000000 
0.000000 
0.000000 
0.000000 
0.000000 
0.000000 
0.000000 
0.000000 
0.000000 
0.000000 
0.000000 
0.000000 
0.000000 
0.000000 
0.000000 
0.000000 
0.000000 
0.000000 
0.000000 
0.000000 
0.000001 
0.000001 
0.000001 
0.000001 
0.000001 
0.000001 
0.000001 
0.000001 
0.000001 
0.000001 
0.000001 
0.000001 
0.000001 
0.000001 
0.000002 
0.000002 
0.000002 
0.000002 
0.000002 
0.000002 
0.000002 
0.000003 
0.000003 
0.000003 
0.000003 
0.000003 
0.000004 
0.000004 
0.000004 
0.000004 
0.000005 
0.000005 
0.000005 
0.000006 
0.000006 
0.000006 
0.000007 
0.000007 
0.000008 
0.000008 
0.000009 
0.000010 
0.000010 
0.000011 
0.000011 
0.000012 
0.000013 
0.000014 
0.000015 
0.000015 
0.000016 
0.000017 
0.000018 
0.000020 
0.000021 
0.000022 
0.000023 
0.000025 
0.000026 
0.000027 
0.000029 
0.000031 
0.000032 
0.000034 
0.000036 
0.000038 
0.000040 
0.000042 
0.000044 
0.000047 
0.000049 
0.000052 
0.000054 
0.000057 
0.000060 
0.000063 
0.000066 
0.000070 
0.000073 
0.000076 
0.000080 
0.000084 
0.000088 
0.000092 
0.000096 
0.000101 
0.000105 
0.000110 
0.000115 
0.000120 
0.000125 
0.000131 
0.000136 
0.000142 
0.000148 
0.000154 
0.000161 
0.000167 
0.000174 
0.000181 
0.000188 
0.000196 
0.000203 
0.000211 
0.000219 
0.000228 
0.000236 
0.000245 
0.000254 
0.000263 
0.000272 
0.000282 
0.000291 
0.000301 
0.000312 
0.000322 
0.000333 
0.000344 
0.000355 
0.000366 
0.000378 
0.000390 
0.000402 
0.000414 
0.000426 
0.000439 
0.000452 
0.000465 
0.000478 
0.000491 
0.000505 
0.000519 
0.000533 
0.000547 
0.000561 
0.000576 
0.000590 
0.000605 
0.000620 
0.000635 
0.000650 
0.000666 
0.000681 
0.000697 
0.000712 
0.000728 
0.000744 
0.000760 
0.000776 
0.000792 
0.000808 
0.000824 
0.000840 
0.000856 
0.000873 
0.000889 
0.000905 
0.000921 
0.000938 
0.000954 
0.000970 
0.000986 
0.001002 
0.001018 
0.001034 
0.001049 
0.001065 
0.001081 
0.001096 
0.001111 
0.001126 
0.001141 
0.001156 
0.001171 
0.001185 
0.001200 
0.001214 
0.001227 
0.001241 
0.001254 
0.001268 
0.001281 
0.001293 
0.001306 
0.001318 
0.001329 
0.001341 
0.001352 
0.001363 
0.001374 
0.001384 
0.001394 
0.001403 
0.001413 
0.001421 
0.001430 
0.001438 
0.001446 
0.001453 
0.001460 
0.001467 
0.001473 
0.001479 
0.001485 
0.001490 
0.001494 
0.001499 
0.001502 
0.001506 
0.001509 
0.001511 
0.001513 
0.001515 
0.001516 
0.001517 
0.001518 
0.000000 
0.000000 
0.000000 
0.000000 
0.000000 
0.000000 
0.000000 
0.000000 
0.000000 
0.000000 
0.000000 
0.000000 
0.000000 
0.000000 
0.000000 
0.000000 
0.000000 
0.000000 
0.000000 
0.000000 
0.000000 
0.000000 
0.000000 
0.000000 
0.000000 
0.000000 
0.000000 
0.000000 
0.000000 
0.000000 
0.000000 
0.000000 
0.000000 
0.000000 
0.000000 
0.000000 
0.000000 
0.000000 
0.000000 
0.000000 
0.000000 
0.000000 
0.000000 
0.000000 
0.000000 
0.000000 
0.000000 
0.000000 
0.000000 
0.000000 
0.000000 
0.000000 
0.000000 
0.000000 
0.000000 
0.000000 
0.000000 
0.000000 
0.000000 
0.000000 
0.000000 
0.000000 
0.000000 
0.000000 
0.000000 
0.000000 
0.000000 
0.000000 
0.000000 
0.000000 
0.000000 
0.000000 
0.000000 
0.000000 
0.000000 
0.000000 
0.000000 
0.000000 
0.000000 
0.000000 
0.000000 
0.000001 
0.000001 
0.000001 
0.000001 
0.000001 
0.000001 
0.000001 
0.000001 
0.000001 
0.000001 
0.000001 
0.000001 
0.000001 
0.000001 
0.000002 
0.000002 
0.000002 
0.000002 
0.000002 
0.000002 
0.000002 
0.000003 
0.000003 
0.000003 
0.000003 
0.000003 
0.000004 
0.000004 
0.000004 
0.000004 
0.000005 
0.000005 
0.000006 
0.000006 
0.000006 
0.000007 
0.000007 
0.000008 
0.000008 
0.000009 
0.000009 
0.000010 
0.000011 
0.000011 
0.000012 
0.000013 
0.000014 
0.000015 
0.000015 
0.000016 
0.000017 
0.000019 
0.000020 
0.000021 
0.000022 
0.000024 
0.000025 
0.000026 
0.000028 
0.000030 
0.000031 
0.000033 
0.000035 
0.000037 
0.000039 
0.000041 
0.000044 
0.000046 
0.000049 
0.000051 
0.000054 
0.000057 
0.000060 
0.000063 
0.000066 
0.000070 
0.000073 
0.000077 
0.000081 
0.000085 
0.000089 
0.000094 
0.000098 
0.000103 
0.000108 
0.000113 
0.000119 
0.000124 
0.000130 
0.000136 
0.000142 
0.000148 
0.000155 
0.000162 
0.000169 
0.000176 
0.000184 
0.000192 
0.000200 
0.000208 
0.000217 
0.000226 
0.000235 
0.000244 
0.000254 
0.000264 
0.000274 
0.000285 
0.000295 
0.000307 
0.000318 
0.000330 
0.000342 
0.000354 
0.000366 
0.000379 
0.000392 
0.000406 
0.000420 
0.000434 
0.000448 
0.000463 
0.000478 
0.000493 
0.000509 
0.000524 
0.000541 
0.000557 
0.000574 
0.000591 
0.000608 
0.000625 
0.000643 
0.000661 
0.000679 
0.000698 
0.000717 
0.000736 
0.000755 
0.000774 
0.000794 
0.000814 
0.000834 
0.000854 
0.000874 
0.000895 
0.000916 
0.000936 
0.000957 
0.000978 
0.001000 
0.001021 
0.001043 
0.001064 
0.001086 
0.001107 
0.001129 
0.001151 
0.001172 
0.001194 
0.001216 
0.001238 
0.001259 
0.001281 
0.001302 
0.001324 
0.001345 
0.001367 
0.001388 
0.001409 
0.001430 
0.001451 
0.001471 
0.001492 
0.001512 
0.001532 
0.001552 
0.001572 
0.001591 
0.001610 
0.001629 
0.001647 
0.001666 
0.001683 
0.001701 
0.001718 
0.001735 
0.001752 
0.001768 
0.001784 
0.001799 
0.001814 
0.001829 
0.001843 
0.001856 
0.001870 
0.001883 
0.001895 
0.001907 
0.001918 
0.001929 
0.001940 
0.001949 
0.001959 
0.001968 
0.001976 
0.001984 
0.001991 
0.001998 
0.002004 
0.002010 
0.002015 
0.002019 
0.002023 
0.002027 
0.002030 
0.002032 
0.002034 
0.002035 
0.002035 
0.000000 
0.000000 
0.000000 
0.000000 
0.000000 
0.000000 
0.000000 
0.000000 
0.000000 
0.000000 
0.000000 
0.000000 
0.000000 
0.000000 
0.000000 
0.000000 
0.000000 
0.000000 
0.000000 
0.000000 
0.000000 
0.000000 
0.000000 
0.000000 
0.000000 
0.000000 
0.000000 
0.000000 
0.000000 
0.000000 
0.000000 
0.000000 
0.000000 
0.000000 
0.000000 
0.000000 
0.000000 
0.000000 
0.000000 
0.000000 
0.000000 
0.000000 
0.000000 
0.000000 
0.000000 
0.000000 
0.000000 
0.000000 
0.000000 
0.000000 
0.000000 
0.000000 
0.000000 
0.000000 
0.000000 
0.000000 
0.000000 
0.000000 
0.000000 
0.000000 
0.000000 
0.000000 
0.000000 
0.000000 
0.000000 
0.000000 
0.000000 
0.000000 
0.000000 
0.000000 
0.000000 
0.000000 
0.000000 
0.000000 
0.000000 
0.000000 
0.000000 
0.000000 
0.000001 
0.000001 
0.000001 
0.000001 
0.000001 
0.000001 
0.000001 
0.000001 
0.000001 
0.000001 
0.000001 
0.000001 
0.000001 
0.000001 
0.000002 
0.000002 
0.000002 
0.000002 
0.000002 
0.000002 
0.000002 
0.000003 
0.000003 
0.000003 
0.000003 
0.000003 
0.000004 
0.000004 
0.000004 
0.000005 
0.000005 
0.000005 
0.000006 
0.000006 
0.000007 
0.000007 
0.000007 
0.000008 
0.000009 
0.000009 
0.000010 
0.000010 
0.000011 
0.000012 
0.000013 
0.000013 
0.000014 
0.000015 
0.000016 
0.000017 
0.000018 
0.000020 
0.000021 
0.000022 
0.000024 
0.000025 
0.000027 
0.000028 
0.000030 
0.000032 
0.000034 
0.000035 
0.000038 
0.000040 
0.000042 
0.000044 
0.000047 
0.000050 
0.000052 
0.000055 
0.000058 
0.000062 
0.000065 
0.000069 
0.000072 
0.000076 
0.000080 
0.000084 
0.000089 
0.000093 
0.000098 
0.000103 
0.000108 
0.000113 
0.000119 
0.000125 
0.000131 
0.000137 
0.000144 
0.000150 
0.000157 
0.000165 
0.000172 
0.000180 
0.000188 
0.000197 
0.000205 
0.000214 
0.000224 
0.000233 
0.000243 
0.000253 
0.000264 
0.000275 
0.000286 
0.000297 
0.000309 
0.000322 
0.000334 
0.000347 
0.000360 
0.000374 
0.000388 
0.000403 
0.000417 
0.000433 
0.000448 
0.000464 
0.000480 
0.000497 
0.000514 
0.000531 
0.000549 
0.000567 
0.000586 
0.000605 
0.000624 
0.000643 
0.000663 
0.000684 
0.000704 
0.000725 
0.000747 
0.000769 
0.000791 
0.000813 
0.000836 
0.000859 
0.000882 
0.000906 
0.000930 
0.000954 
0.000978 
0.001003 
0.001028 
0.001053 
0.001079 
0.001105 
0.001130 
0.001156 
0.001183 
0.001209 
0.001236 
0.001263 
0.001289 
0.001316 
0.001343 
0.001371 
0.001398 
0.001425 
0.001452 
0.001480 
0.001507 
0.001534 
0.001562 
0.001589 
0.001616 
0.001643 
0.001670 
0.001697 
0.001724 
0.001751 
0.001777 
0.001804 
0.001830 
0.001856 
0.001881 
0.001907 
0.001932 
0.001957 
0.001981 
0.002006 
0.002030 
0.002053 
0.002076 
0.002099 
0.002122 
0.002144 
0.002166 
0.002187 
0.002207 
0.002228 
0.002248 
0.002267 
0.002286 
0.002304 
0.002322 
0.002339 
0.002356 
0.002372 
0.002387 
0.002402 
0.002416 
0.002430 
0.002443 
0.002455 
0.002467 
0.002478 
0.002489 
0.002499 
0.002508 
0.002516 
0.002524 
0.002531 
0.002537 
0.002543 
0.002548 
0.002552 
0.002556 
0.002559 
0.002561 
0.002562 
0.002563 
0.000000 
0.000000 
0.000000 
0.000000 
0.000000 
0.000000 
0.000000 
0.000000 
0.000000 
0.000000 
0.000000 
0.000000 
0.000000 
0.000000 
0.000000 
0.000000 
0.000000 
0.000000 
0.000000 
0.000000 
0.000000 
0.000000 
0.000000 
0.000000 
0.000000 
0.000000 
0.000000 
0.000000 
0.000000 
0.000000 
0.000000 
0.000000 
0.000000 
0.000000 
0.000000 
0.000000 
0.000000 
0.000000 
0.000000 
0.000000 
0.000000 
0.000000 
0.000000 
0.000000 
0.000000 
0.000000 
0.000000 
0.000000 
0.000000 
0.000000 
0.000000 
0.000000 
0.000000 
0.000000 
0.000000 
0.000000 
0.000000 
0.000000 
0.000000 
0.000000 
0.000000 
0.000000 
0.000000 
0.000000 
0.000000 
0.000000 
0.000000 
0.000000 
0.000000 
0.000000 
0.000000 
0.000000 
0.000000 
0.000000 
0.000000 
0.000000 
0.000001 
0.000001 
0.000001 
0.000001 
0.000001 
0.000001 
0.000001 
0.000001 
0.000001 
0.000001 
0.000001 
0.000001 
0.000001 
0.000002 
0.000002 
0.000002 
0.000002 
0.000002 
0.000002 
0.000002 
0.000003 
0.000003 
0.000003 
0.000003 
0.000003 
0.000004 
0.000004 
0.000004 
0.000005 
0.000005 
0.000005 
0.000006 
0.000006 
0.000007 
0.000007 
0.000007 
0.000008 
0.000009 
0.000009 
0.000010 
0.000010 
0.000011 
0.000012 
0.000013 
0.000014 
0.000015 
0.000015 
0.000017 
0.000018 
0.000019 
0.000020 
0.000021 
0.000023 
0.000024 
0.000026 
0.000027 
0.000029 
0.000031 
0.000032 
0.000034 
0.000036 
0.000039 
0.000041 
0.000043 
0.000046 
0.000049 
0.000051 
0.000054 
0.000057 
0.000061 
0.000064 
0.000068 
0.000071 
0.000075 
0.000079 
0.000084 
0.000088 
0.000093 
0.000098 
0.000103 
0.000108 
0.000114 
0.000120 
0.000126 
0.000132 
0.000138 
0.000145 
0.000152 
0.000160 
0.000167 
0.000175 
0.000184 
0.000192 
0.000201 
0.000210 
0.000220 
0.000230 
0.000240 
0.000251 
0.000261 
0.000273 
0.000284 
0.000297 
0.000309 
0.000322 
0.000335 
0.000349 
0.000363 
0.000377 
0.000392 
0.000408 
0.000423 
0.000440 
0.000456 
0.000473 
0.000491 
0.000509 
0.000527 
0.000546 
0.000565 
0.000585 
0.000605 
0.000626 
0.000647 
0.000669 
0.000691 
0.000713 
0.000736 
0.000760 
0.000783 
0.000808 
0.000832 
0.000858 
0.000883 
0.000909 
0.000935 
0.000962 
0.000989 
0.001017 
0.001045 
0.001073 
0.001102 
0.001131 
0.001160 
0.001190 
0.001220 
0.001250 
0.001281 
0.001311 
0.001343 
0.001374 
0.001406 
0.001437 
0.001469 
0.001502 
0.001534 
0.001566 
0.001599 
0.001632 
0.001665 
0.001698 
0.001731 
0.001764 
0.001797 
0.001830 
0.001863 
0.001896 
0.001929 
0.001962 
0.001994 
0.002027 
0.002060 
0.002092 
0.002124 
0.002156 
0.002188 
0.002219 
0.002251 
0.002282 
0.002312 
0.002343 
0.002373 
0.002402 
0.002432 
0.002461 
0.002489 
0.002517 
0.002545 
0.002572 
0.002598 
0.002625 
0.002650 
0.002675 
0.002700 
0.002723 
0.002747 
0.002769 
0.002791 
0.002813 
0.002834 
0.002854 
0.002873 
0.002892 
0.002910 
0.002927 
0.002943 
0.002959 
0.002974 
0.002988 
0.003002 
0.003014 
0.003026 
0.003037 
0.003047 
0.003056 
0.003065 
0.003073 
0.003080 
0.003086 
0.003091 
0.003095 
0.003098 
0.003101 
0.003103 
0.003104 
0.000000 
0.000000 
0.000000 
0.000000 
0.000000 
0.000000 
0.000000 
0.000000 
0.000000 
0.000000 
0.000000 
0.000000 
0.000000 
0.000000 
0.000000 
0.000000 
0.000000 
0.000000 
0.000000 
0.000000 
0.000000 
0.000000 
0.000000 
0.000000 
0.000000 
0.000000 
0.000000 
0.000000 
0.000000 
0.000000 
0.000000 
0.000000 
0.000000 
0.000000 
0.000000 
0.000000 
0.000000 
0.000000 
0.000000 
0.000000 
0.000000 
0.000000 
0.000000 
0.000000 
0.000000 
0.000000 
0.000000 
0.000000 
0.000000 
0.000000 
0.000000 
0.000000 
0.000000 
0.000000 
0.000000 
0.000000 
0.000000 
0.000000 
0.000000 
0.000000 
0.000000 
0.000000 
0.000000 
0.000000 
0.000000 
0.000000 
0.000000 
0.000000 
0.000000 
0.000000 
0.000000 
0.000000 
0.000000 
0.000001 
0.000001 
0.000001 
0.000001 
0.000001 
0.000001 
0.000001 
0.000001 
0.000001 
0.000001 
0.000001 
0.000001 
0.000001 
0.000001 
0.000002 
0.000002 
0.000002 
0.000002 
0.000002 
0.000002 
0.000002 
0.000003 
0.000003 
0.000003 
0.000003 
0.000004 
0.000004 
0.000004 
0.000004 
0.000005 
0.000005 
0.000005 
0.000006 
0.000006 
0.000007 
0.000007 
0.000008 
0.000008 
0.000009 
0.000010 
0.000010 
0.000011 
0.000012 
0.000012 
0.000013 
0.000014 
0.000015 
0.000016 
0.000017 
0.000018 
0.000020 
0.000021 
0.000022 
0.000024 
0.000025 
0.000027 
0.000029 
0.000030 
0.000032 
0.000034 
0.000036 
0.000039 
0.000041 
0.000044 
0.000046 
0.000049 
0.000052 
0.000055 
0.000058 
0.000061 
0.000065 
0.000069 
0.000072 
0.000076 
0.000081 
0.000085 
0.000090 
0.000095 
0.000100 
0.000105 
0.000111 
0.000117 
0.000123 
0.000129 
0.000136 
0.000142 
0.000150 
0.000157 
0.000165 
0.000173 
0.000181 
0.000190 
0.000199 
0.000209 
0.000219 
0.000229 
0.000239 
0.000250 
0.000262 
0.000273 
0.000286 
0.000298 
0.000311 
0.000325 
0.000338 
0.000353 
0.000368 
0.000383 
0.000399 
0.000415 
0.000431 
0.000449 
0.000466 
0.000485 
0.000503 
0.000522 
0.000542 
0.000562 
0.000583 
0.000604 
0.000626 
0.000649 
0.000672 
0.000695 
0.000719 
0.000743 
0.000768 
0.000794 
0.000820 
0.000847 
0.000874 
0.000902 
0.000930 
0.000958 
0.000988 
0.001017 
0.001048 
0.001078 
0.001109 
0.001141 
0.001173 
0.001206 
0.001239 
0.001272 
0.001306 
0.001340 
0.001375 
0.001410 
0.001445 
0.001481 
0.001517 
0.001553 
0.001590 
0.001627 
0.001664 
0.001702 
0.001740 
0.001777 
0.001816 
0.001854 
0.001892 
0.001931 
0.001970 
0.002008 
0.002047 
0.002086 
0.002125 
0.002164 
0.002203 
0.002242 
0.002280 
0.002319 
0.002358 
0.002396 
0.002434 
0.002472 
0.002510 
0.002548 
0.002585 
0.002622 
0.002659 
0.002695 
0.002731 
0.002767 
0.002802 
0.002837 
0.002872 
0.002905 
0.002939 
0.002972 
0.003004 
0.003036 
0.003067 
0.003098 
0.003128 
0.003157 
0.003186 
0.003214 
0.003241 
0.003268 
0.003294 
0.003319 
0.003343 
0.003366 
0.003389 
0.003411 
0.003432 
0.003452 
0.003471 
0.003490 
0.003507 
0.003524 
0.003540 
0.003554 
0.003568 
0.003581 
0.003593 
0.003604 
0.003614 
0.003623 
0.003631 
0.003638 
0.003644 
0.003649 
0.003653 
0.003656 
0.003658 
0.003659 
0.000000 
0.000000 
0.000000 
0.000000 
0.000000 
0.000000 
0.000000 
0.000000 
0.000000 
0.000000 
0.000000 
0.000000 
0.000000 
0.000000 
0.000000 
0.000000 
0.000000 
0.000000 
0.000000 
0.000000 
0.000000 
0.000000 
0.000000 
0.000000 
0.000000 
0.000000 
0.000000 
0.000000 
0.000000 
0.000000 
0.000000 
0.000000 
0.000000 
0.000000 
0.000000 
0.000000 
0.000000 
0.000000 
0.000000 
0.000000 
0.000000 
0.000000 
0.000000 
0.000000 
0.000000 
0.000000 
0.000000 
0.000000 
0.000000 
0.000000 
0.000000 
0.000000 
0.000000 
0.000000 
0.000000 
0.000000 
0.000000 
0.000000 
0.000000 
0.000000 
0.000000 
0.000000 
0.000000 
0.000000 
0.000000 
0.000000 
0.000000 
0.000000 
0.000000 
0.000000 
0.000000 
0.000000 
0.000001 
0.000001 
0.000001 
0.000001 
0.000001 
0.000001 
0.000001 
0.000001 
0.000001 
0.000001 
0.000001 
0.000001 
0.000001 
0.000002 
0.000002 
0.000002 
0.000002 
0.000002 
0.000002 
0.000002 
0.000003 
0.000003 
0.000003 
0.000003 
0.000004 
0.000004 
0.000004 
0.000004 
0.000005 
0.000005 
0.000006 
0.000006 
0.000006 
0.000007 
0.000007 
0.000008 
0.000009 
0.000009 
0.000010 
0.000010 
0.000011 
0.000012 
0.000013 
0.000014 
0.000015 
0.000016 
0.000017 
0.000018 
0.000019 
0.000020 
0.000022 
0.000023 
0.000025 
0.000026 
0.000028 
0.000030 
0.000032 
0.000034 
0.000036 
0.000038 
0.000040 
0.000043 
0.000045 
0.000048 
0.000051 
0.000054 
0.000057 
0.000061 
0.000064 
0.000068 
0.000072 
0.000076 
0.000080 
0.000085 
0.000090 
0.000094 
0.000100 
0.000105 
0.000111 
0.000117 
0.000123 
0.000130 
0.000136 
0.000143 
0.000151 
0.000159 
0.000167 
0.000175 
0.000184 
0.000193 
0.000202 
0.000212 
0.000223 
0.000233 
0.000244 
0.000256 
0.000268 
0.000280 
0.000293 
0.000306 
0.000320 
0.000334 
0.000348 
0.000364 
0.000379 
0.000395 
0.000412 
0.000429 
0.000447 
0.000466 
0.000484 
0.000504 
0.000524 
0.000545 
0.000566 
0.000588 
0.000610 
0.000633 
0.000656 
0.000681 
0.000705 
0.000731 
0.000757 
0.000783 
0.000811 
0.000838 
0.000867 
0.000896 
0.000926 
0.000956 
0.000987 
0.001018 
0.001051 
0.001083 
0.001117 
0.001151 
0.001185 
0.001220 
0.001256 
0.001292 
0.001329 
0.001366 
0.001403 
0.001442 
0.001480 
0.001520 
0.001559 
0.001599 
0.001640 
0.001681 
0.001722 
0.001764 
0.001806 
0.001849 
0.001891 
0.001934 
0.001978 
0.002021 
0.002065 
0.002109 
0.002154 
0.002198 
0.002243 
0.002287 
0.002332 
0.002377 
0.002422 
0.002467 
0.002512 
0.002557 
0.002601 
0.002646 
0.002691 
0.002735 
0.002779 
0.002823 
0.002867 
0.002911 
0.002954 
0.002997 
0.003040 
0.003082 
0.003124 
0.003166 
0.003207 
0.003248 
0.003288 
0.003327 
0.003366 
0.003405 
0.003443 
0.003480 
0.003516 
0.003552 
0.003588 
0.003622 
0.003656 
0.003689 
0.003721 
0.003752 
0.003783 
0.003813 
0.003841 
0.003869 
0.003896 
0.003922 
0.003947 
0.003972 
0.003995 
0.004017 
0.004038 
0.004058 
0.004077 
0.004095 
0.004112 
0.004128 
0.004143 
0.004157 
0.004169 
0.004181 
0.004191 
0.004200 
0.004208 
0.004215 
0.004221 
0.004226 
0.004229 
0.004232 
0.004233 
0.000000 
0.000000 
0.000000 
0.000000 
0.000000 
0.000000 
0.000000 
0.000000 
0.000000 
0.000000 
0.000000 
0.000000 
0.000000 
0.000000 
0.000000 
0.000000 
0.000000 
0.000000 
0.000000 
0.000000 
0.000000 
0.000000 
0.000000 
0.000000 
0.000000 
0.000000 