# vtk DataFile Version 3.0
results.vtk
ASCII
DATASET RECTILINEAR_GRID
DIMENSIONS 301 301 1
X_COORDINATES 301 double
0.000000 0.003333 0.006667 0.010000 0.013333 0.016667 0.020000 0.023333 0.026667 0.030000 0.033333 0.036667 0.040000 0.043333 0.046667 0.050000 0.053333 0.056667 0.060000 0.063333 0.066667 0.070000 0.073333 0.076667 0.080000 0.083333 0.086667 0.090000 0.093333 0.096667 0.100000 0.103333 0.106667 0.110000 0.113333 0.116667 0.120000 0.123333 0.126667 0.130000 0.133333 0.136667 0.140000 0.143333 0.146667 0.150000 0.153333 0.156667 0.160000 0.163333 0.166667 0.170000 0.173333 0.176667 0.180000 0.183333 0.186667 0.190000 0.193333 0.196667 0.200000 0.203333 0.206667 0.210000 0.213333 0.216667 0.220000 0.223333 0.226667 0.230000 0.233333 0.236667 0.240000 0.243333 0.246667 0.250000 0.253333 0.256667 0.260000 0.263333 0.266667 0.270000 0.273333 0.276667 0.280000 0.283333 0.286667 0.290000 0.293333 0.296667 0.300000 0.303333 0.306667 0.310000 0.313333 0.316667 0.320000 0.323333 0.326667 0.330000 0.333333 0.336667 0.340000 0.343333 0.346667 0.350000 0.353333 0.356667 0.360000 0.363333 0.366667 0.370000 0.373333 0.376667 0.380000 0.383333 0.386667 0.390000 0.393333 0.396667 0.400000 0.403333 0.406667 0.410000 0.413333 0.416667 0.420000 0.423333 0.426667 0.430000 0.433333 0.436667 0.440000 0.443333 0.446667 0.450000 0.453333 0.456667 0.460000 0.463333 0.466667 0.470000 0.473333 0.476667 0.480000 0.483333 0.486667 0.490000 0.493333 0.496667 0.500000 0.503333 0.506667 0.510000 0.513333 0.516667 0.520000 0.523333 0.526667 0.530000 0.533333 0.536667 0.540000 0.543333 0.546667 0.550000 0.553333 0.556667 0.560000 0.563333 0.566667 0.570000 0.573333 0.576667 0.580000 0.583333 0.586667 0.590000 0.593333 0.596667 0.600000 0.603333 0.606667 0.610000 0.613333 0.616667 0.620000 0.623333 0.626667 0.630000 0.633333 0.636667 0.640000 0.643333 0.646667 0.650000 0.653333 0.656667 0.660000 0.663333 0.666667 0.670000 0.673333 0.676667 0.680000 0.683333 0.686667 0.690000 0.693333 0.696667 0.700000 0.703333 0.706667 0.710000 0.713333 0.716667 0.720000 0.723333 0.726667 0.730000 0.733333 0.736667 0.740000 0.743333 0.746667 0.750000 0.753333 0.756667 0.760000 0.763333 0.766667 0.770000 0.773333 0.776667 0.780000 0.783333 0.786667 0.790000 0.793333 0.796667 0.800000 0.803333 0.806667 0.810000 0.813333 0.816667 0.820000 0.823333 0.826667 0.830000 0.833333 0.836667 0.840000 0.843333 0.846667 0.850000 0.853333 0.856667 0.860000 0.863333 0.866667 0.870000 0.873333 0.876667 0.880000 0.883333 0.886667 0.890000 0.893333 0.896667 0.900000 0.903333 0.906667 0.910000 0.913333 0.916667 0.920000 0.923333 0.926667 0.930000 0.933333 0.936667 0.940000 0.943333 0.946667 0.950000 0.953333 0.956667 0.960000 0.963333 0.966667 0.970000 0.973333 0.976667 0.980000 0.983333 0.986667 0.990000 0.993333 0.996667 1.000000 
Y_COORDINATES 301 double
0.000000 0.003333 0.006667 0.010000 0.013333 0.016667 0.020000 0.023333 0.026667 0.030000 0.033333 0.036667 0.040000 0.043333 0.046667 0.050000 0.053333 0.056667 0.060000 0.063333 0.066667 0.070000 0.073333 0.076667 0.080000 0.083333 0.086667 0.090000 0.093333 0.096667 0.100000 0.103333 0.106667 0.110000 0.113333 0.116667 0.120000 0.123333 0.126667 0.130000 0.133333 0.136667 0.140000 0.143333 0.146667 0.150000 0.153333 0.156667 0.160000 0.163333 0.166667 0.170000 0.173333 0.176667 0.180000 0.183333 0.186667 0.190000 0.193333 0.196667 0.200000 0.203333 0.206667 0.210000 0.213333 0.216667 0.220000 0.223333 0.226667 0.230000 0.233333 0.236667 0.240000 0.243333 0.246667 0.250000 0.253333 0.256667 0.260000 0.263333 0.266667 0.270000 0.273333 0.276667 0.280000 0.283333 0.286667 0.290000 0.293333 0.296667 0.300000 0.303333 0.306667 0.310000 0.313333 0.316667 0.320000 0.323333 0.326667 0.330000 0.333333 0.336667 0.340000 0.343333 0.346667 0.350000 0.353333 0.356667 0.360000 0.363333 0.366667 0.370000 0.373333 0.376667 0.380000 0.383333 0.386667 0.390000 0.393333 0.396667 0.400000 0.403333 0.406667 0.410000 0.413333 0.416667 0.420000 0.423333 0.426667 0.430000 0.433333 0.436667 0.440000 0.443333 0.446667 0.450000 0.453333 0.456667 0.460000 0.463333 0.466667 0.470000 0.473333 0.476667 0.480000 0.483333 0.486667 0.490000 0.493333 0.496667 0.500000 0.503333 0.506667 0.510000 0.513333 0.516667 0.520000 0.523333 0.526667 0.530000 0.533333 0.536667 0.540000 0.543333 0.546667 0.550000 0.553333 0.556667 0.560000 0.563333 0.566667 0.570000 0.573333 0.576667 0.580000 0.583333 0.586667 0.590000 0.593333 0.596667 0.600000 0.603333 0.606667 0.610000 0.613333 0.616667 0.620000 0.623333 0.626667 0.630000 0.633333 0.636667 0.640000 0.643333 0.646667 0.650000 0.653333 0.656667 0.660000 0.663333 0.666667 0.670000 0.673333 0.676667 0.680000 0.683333 0.686667 0.690000 0.693333 0.696667 0.700000 0.703333 0.706667 0.710000 0.713333 0.716667 0.720000 0.723333 0.726667 0.730000 0.733333 0.736667 0.740000 0.743333 0.746667 0.750000 0.753333 0.756667 0.760000 0.763333 0.766667 0.770000 0.773333 0.776667 0.780000 0.783333 0.786667 0.790000 0.793333 0.796667 0.800000 0.803333 0.806667 0.810000 0.813333 0.816667 0.820000 0.823333 0.826667 0.830000 0.833333 0.836667 0.840000 0.843333 0.846667 0.850000 0.853333 0.856667 0.860000 0.863333 0.866667 0.870000 0.873333 0.876667 0.880000 0.883333 0.886667 0.890000 0.893333 0.896667 0.900000 0.903333 0.906667 0.910000 0.913333 0.916667 0.920000 0.923333 0.926667 0.930000 0.933333 0.936667 0.940000 0.943333 0.946667 0.950000 0.953333 0.956667 0.960000 0.963333 0.966667 0.970000 0.973333 0.976667 0.980000 0.983333 0.986667 0.990000 0.993333 0.996667 1.000000 
Z_COORDINATES 1 double
0
POINT_DATA 90601 
FIELD FieldData 1 
Concentração 1 90601 double 
0.000000 
0.000000 
0.000000 
0.000000 
0.000000 
0.000000 
0.000000 
0.000000 
0.000000 
0.000000 
0.000000 
0.000000 
0.000000 
0.000000 
0.000000 
0.000000 
0.000000 
0.000000 
0.000000 
0.000000 
0.000000 
0.000000 
0.000000 
0.000000 
0.000000 
0.000000 
0.000000 
0.000000 
0.000000 
0.000000 
0.000000 
0.000000 
0.000000 
0.000000 
0.000000 
0.000000 
0.000000 
0.000000 
0.000000 
0.000000 
0.000000 
0.000000 
0.000000 
0.000000 
0.000000 
0.000000 
0.000000 
0.000000 
0.000000 
0.000000 
0.000000 
0.000000 
0.000000 
0.000000 
0.000000 
0.000000 
0.000000 
0.000000 
0.000000 
0.000000 
0.000000 
0.000000 
0.000000 
0.000000 
0.000000 
0.000000 
0.000000 
0.000000 
0.000000 
0.000000 
0.000000 
0.000000 
0.000000 
0.000000 
0.000000 
0.000000 
0.000000 
0.000000 
0.000000 
0.000000 
0.000000 
0.000001 
0.000001 
0.000001 
0.000001 
0.000001 
0.000001 
0.000001 
0.000001 
0.000001 
0.000001 
0.000001 
0.000001 
0.000001 
0.000001 
0.000002 
0.000002 
0.000002 
0.000002 
0.000002 
0.000002 
0.000002 
0.000003 
0.000003 
0.000003 
0.000003 
0.000003 
0.000004 
0.000004 
0.000004 
0.000004 
0.000005 
0.000005 
0.000005 
0.000006 
0.000006 
0.000006 
0.000007 
0.000007 
0.000008 
0.000008 
0.000009 
0.000009 
0.000010 
0.000010 
0.000011 
0.000012 
0.000012 
0.000013 
0.000014 
0.000015 
0.000016 
0.000017 
0.000018 
0.000019 
0.000020 
0.000021 
0.000022 
0.000023 
0.000025 
0.000026 
0.000027 
0.000029 
0.000030 
0.000032 
0.000034 
0.000035 
0.000037 
0.000039 
0.000041 
0.000043 
0.000046 
0.000048 
0.000050 
0.000053 
0.000055 
0.000058 
0.000061 
0.000064 
0.000067 
0.000070 
0.000073 
0.000076 
0.000080 
0.000083 
0.000087 
0.000091 
0.000095 
0.000099 
0.000103 
0.000108 
0.000112 
0.000117 
0.000122 
0.000126 
0.000132 
0.000137 
0.000142 
0.000148 
0.000153 
0.000159 
0.000165 
0.000171 
0.000178 
0.000184 
0.000191 
0.000198 
0.000205 
0.000212 
0.000219 
0.000226 
0.000234 
0.000242 
0.000250 
0.000258 
0.000266 
0.000274 
0.000283 
0.000291 
0.000300 
0.000309 
0.000318 
0.000327 
0.000337 
0.000346 
0.000356 
0.000366 
0.000376 
0.000386 
0.000396 
0.000406 
0.000417 
0.000427 
0.000438 
0.000449 
0.000459 
0.000470 
0.000481 
0.000492 
0.000504 
0.000515 
0.000526 
0.000538 
0.000549 
0.000561 
0.000572 
0.000584 
0.000595 
0.000607 
0.000619 
0.000630 
0.000642 
0.000654 
0.000666 
0.000677 
0.000689 
0.000701 
0.000712 
0.000724 
0.000735 
0.000747 
0.000759 
0.000770 
0.000781 
0.000793 
0.000804 
0.000815 
0.000826 
0.000837 
0.000848 
0.000859 
0.000870 
0.000880 
0.000891 
0.000901 
0.000911 
0.000921 
0.000931 
0.000941 
0.000950 
0.000960 
0.000969 
0.000978 
0.000987 
0.000996 
0.001005 
0.001013 
0.001021 
0.001029 
0.001037 
0.001045 
0.001052 
0.001059 
0.001066 
0.001073 
0.001080 
0.001086 
0.001092 
0.001098 
0.001104 
0.001109 
0.001114 
0.001119 
0.001124 
0.001128 
0.001132 
0.001136 
0.001140 
0.001143 
0.001147 
0.001149 
0.001152 
0.001155 
0.001157 
0.001159 
0.001160 
0.001161 
0.001162 
0.001163 
0.001164 
0.001164 
0.000000 
0.000000 
0.000000 
0.000000 
0.000000 
0.000000 
0.000000 
0.000000 
0.000000 
0.000000 
0.000000 
0.000000 
0.000000 
0.000000 
0.000000 
0.000000 
0.000000 
0.000000 
0.000000 
0.000000 
0.000000 
0.000000 
0.000000 
0.000000 
0.000000 
0.000000 
0.000000 
0.000000 
0.000000 
0.000000 
0.000000 
0.000000 
0.000000 
0.000000 
0.000000 
0.000000 
0.000000 
0.000000 
0.000000 
0.000000 
0.000000 
0.000000 
0.000000 
0.000000 
0.000000 
0.000000 
0.000000 
0.000000 
0.000000 
0.000000 
0.000000 
0.000000 
0.000000 
0.000000 
0.000000 
0.000000 
0.000000 
0.000000 
0.000000 
0.000000 
0.000000 
0.000000 
0.000000 
0.000000 
0.000000 
0.000000 
0.000000 
0.000000 
0.000000 
0.000000 
0.000000 
0.000000 
0.000001 
0.000001 
0.000001 
0.000001 
0.000001 
0.000001 
0.000001 
0.000001 
0.000001 
0.000001 
0.000001 
0.000001 
0.000001 
0.000001 
0.000002 
0.000002 
0.000002 
0.000002 
0.000002 
0.000002 
0.000002 
0.000003 
0.000003 
0.000003 
0.000003 
0.000004 
0.000004 
0.000004 
0.000004 
0.000005 
0.000005 
0.000005 
0.000006 
0.000006 
0.000007 
0.000007 
0.000008 
0.000008 
0.000009 
0.000009 
0.000010 
0.000010 
0.000011 
0.000012 
0.000013 
0.000014 
0.000014 
0.000015 
0.000016 
0.000017 
0.000018 
0.000020 
0.000021 
0.000022 
0.000024 
0.000025 
0.000026 
0.000028 
0.000030 
0.000032 
0.000033 
0.000035 
0.000037 
0.000040 
0.000042 
0.000044 
0.000047 
0.000049 
0.000052 
0.000055 
0.000058 
0.000061 
0.000064 
0.000068 
0.000071 
0.000075 
0.000079 
0.000083 
0.000087 
0.000092 
0.000096 
0.000101 
0.000106 
0.000111 
0.000116 
0.000122 
0.000128 
0.000134 
0.000140 
0.000147 
0.000153 
0.000160 
0.000167 
0.000175 
0.000183 
0.000191 
0.000199 
0.000207 
0.000216 
0.000225 
0.000234 
0.000244 
0.000254 
0.000264 
0.000275 
0.000285 
0.000297 
0.000308 
0.000320 
0.000332 
0.000344 
0.000357 
0.000370 
0.000383 
0.000397 
0.000410 
0.000425 
0.000439 
0.000454 
0.000469 
0.000485 
0.000501 
0.000517 
0.000533 
0.000550 
0.000567 
0.000584 
0.000602 
0.000620 
0.000638 
0.000657 
0.000676 
0.000695 
0.000714 
0.000734 
0.000754 
0.000774 
0.000794 
0.000815 
0.000836 
0.000857 
0.000878 
0.000899 
0.000921 
0.000943 
0.000965 
0.000987 
0.001010 
0.001032 
0.001055 
0.001077 
0.001100 
0.001123 
0.001146 
0.001170 
0.001193 
0.001216 
0.001240 
0.001263 
0.001286 
0.001310 
0.001333 
0.001357 
0.001380 
0.001403 
0.001427 
0.001450 
0.001473 
0.001496 
0.001519 
0.001542 
0.001565 
0.001588 
0.001610 
0.001632 
0.001655 
0.001677 
0.001698 
0.001720 
0.001741 
0.001762 
0.001783 
0.001804 
0.001824 
0.001844 
0.001864 
0.001884 
0.001903 
0.001922 
0.001940 
0.001959 
0.001976 
0.001994 
0.002011 
0.002028 
0.002044 
0.002060 
0.002076 
0.002091 
0.002106 
0.002120 
0.002134 
0.002148 
0.002161 
0.002174 
0.002186 
0.002197 
0.002209 
0.002220 
0.002230 
0.002240 
0.002249 
0.002258 
0.002266 
0.002274 
0.002281 
0.002288 
0.002294 
0.002300 
0.002305 
0.002310 
0.002314 
0.002318 
0.002321 
0.002324 
0.002326 
0.002328 
0.002329 
0.002329 
0.000000 
0.000000 
0.000000 
0.000000 
0.000000 
0.000000 
0.000000 
0.000000 
0.000000 
0.000000 
0.000000 
0.000000 
0.000000 
0.000000 
0.000000 
0.000000 
0.000000 
0.000000 
0.000000 
0.000000 
0.000000 
0.000000 
0.000000 
0.000000 
0.000000 
0.000000 
0.000000 
0.000000 
0.000000 
0.000000 
0.000000 
0.000000 
0.000000 
0.000000 
0.000000 
0.000000 
0.000000 
0.000000 
0.000000 
0.000000 
0.000000 
0.000000 
0.000000 
0.000000 
0.000000 
0.000000 
0.000000 
0.000000 
0.000000 
0.000000 
0.000000 
0.000000 
0.000000 
0.000000 
0.000000 
0.000000 
0.000000 
0.000000 
0.000000 
0.000000 
0.000000 
0.000000 
0.000000 
0.000000 
0.000000 
0.000000 
0.000000 
0.000001 
0.000001 
0.000001 
0.000001 
0.000001 
0.000001 
0.000001 
0.000001 
0.000001 
0.000001 
0.000001 
0.000001 
0.000001 
0.000002 
0.000002 
0.000002 
0.000002 
0.000002 
0.000002 
0.000002 
0.000003 
0.000003 
0.000003 
0.000003 
0.000003 
0.000004 
0.000004 
0.000004 
0.000005 
0.000005 
0.000005 
0.000006 
0.000006 
0.000007 
0.000007 
0.000008 
0.000008 
0.000009 
0.000009 
0.000010 
0.000011 
0.000011 
0.000012 
0.000013 
0.000014 
0.000015 
0.000016 
0.000017 
0.000018 
0.000019 
0.000020 
0.000022 
0.000023 
0.000025 
0.000026 
0.000028 
0.000030 
0.000032 
0.000034 
0.000036 
0.000038 
0.000040 
0.000042 
0.000045 
0.000048 
0.000050 
0.000053 
0.000056 
0.000060 
0.000063 
0.000067 
0.000070 
0.000074 
0.000079 
0.000083 
0.000087 
0.000092 
0.000097 
0.000102 
0.000108 
0.000113 
0.000119 
0.000125 
0.000132 
0.000138 
0.000145 
0.000152 
0.000160 
0.000168 
0.000176 
0.000184 
0.000193 
0.000202 
0.000212 
0.000221 
0.000231 
0.000242 
0.000253 
0.000264 
0.000276 
0.000288 
0.000300 
0.000313 
0.000326 
0.000340 
0.000354 
0.000368 
0.000383 
0.000399 
0.000414 
0.000431 
0.000447 
0.000465 
0.000482 
0.000500 
0.000519 
0.000538 
0.000558 
0.000578 
0.000598 
0.000619 
0.000640 
0.000662 
0.000685 
0.000708 
0.000731 
0.000755 
0.000779 
0.000804 
0.000829 
0.000855 
0.000881 
0.000907 
0.000934 
0.000962 
0.000990 
0.001018 
0.001047 
0.001076 
0.001105 
0.001135 
0.001166 
0.001196 
0.001227 
0.001258 
0.001290 
0.001322 
0.001354 
0.001387 
0.001420 
0.001453 
0.001486 
0.001520 
0.001554 
0.001588 
0.001622 
0.001656 
0.001691 
0.001725 
0.001760 
0.001795 
0.001830 
0.001865 
0.001900 
0.001935 
0.001971 
0.002006 
0.002041 
0.002076 
0.002111 
0.002146 
0.002181 
0.002216 
0.002250 
0.002285 
0.002319 
0.002353 
0.002387 
0.002421 
0.002454 
0.002487 
0.002520 
0.002553 
0.002585 
0.002617 
0.002649 
0.002680 
0.002711 
0.002741 
0.002772 
0.002801 
0.002830 
0.002859 
0.002887 
0.002915 
0.002942 
0.002969 
0.002995 
0.003021 
0.003046 
0.003071 
0.003095 
0.003118 
0.003141 
0.003163 
0.003185 
0.003206 
0.003226 
0.003245 
0.003264 
0.003283 
0.003300 
0.003317 
0.003333 
0.003348 
0.003363 
0.003377 
0.003390 
0.003403 
0.003414 
0.003425 
0.003436 
0.003445 
0.003454 
0.003462 
0.003469 
0.003475 
0.003481 
0.003485 
0.003489 
0.003492 
0.003495 
0.003496 
0.003497 
0.000000 
0.000000 
0.000000 
0.000000 
0.000000 
0.000000 
0.000000 
0.000000 
0.000000 
0.000000 
0.000000 
0.000000 
0.000000 
0.000000 
0.000000 
0.000000 
0.000000 
0.000000 
0.000000 
0.000000 
0.000000 
0.000000 
0.000000 
0.000000 
0.000000 
0.000000 
0.000000 
0.000000 
0.000000 
0.000000 
0.000000 
0.000000 
0.000000 
0.000000 
0.000000 
0.000000 
0.000000 
0.000000 
0.000000 
0.000000 
0.000000 
0.000000 
0.000000 
0.000000 
0.000000 
0.000000 
0.000000 
0.000000 
0.000000 
0.000000 
0.000000 
0.000000 
0.000000 
0.000000 
0.000000 
0.000000 
0.000000 
0.000000 
0.000000 
0.000000 
0.000000 
0.000000 
0.000000 
0.000001 
0.000001 
0.000001 
0.000001 
0.000001 
0.000001 
0.000001 
0.000001 
0.000001 
0.000001 
0.000001 
0.000001 
0.000001 
0.000001 
0.000002 
0.000002 
0.000002 
0.000002 
0.000002 
0.000002 
0.000003 
0.000003 
0.000003 
0.000003 
0.000003 
0.000004 
0.000004 
0.000004 
0.000005 
0.000005 
0.000005 
0.000006 
0.000006 
0.000007 
0.000007 
0.000008 
0.000008 
0.000009 
0.000010 
0.000010 
0.000011 
0.000012 
0.000013 
0.000013 
0.000014 
0.000015 
0.000016 
0.000018 
0.000019 
0.000020 
0.000021 
0.000023 
0.000024 
0.000026 
0.000028 
0.000029 
0.000031 
0.000033 
0.000035 
0.000038 
0.000040 
0.000043 
0.000045 
0.000048 
0.000051 
0.000054 
0.000057 
0.000061 
0.000064 
0.000068 
0.000072 
0.000076 
0.000081 
0.000085 
0.000090 
0.000095 
0.000100 
0.000106 
0.000112 
0.000118 
0.000124 
0.000131 
0.000138 
0.000145 
0.000153 
0.000160 
0.000169 
0.000177 
0.000186 
0.000196 
0.000205 
0.000215 
0.000226 
0.000237 
0.000248 
0.000260 
0.000272 
0.000285 
0.000298 
0.000311 
0.000326 
0.000340 
0.000355 
0.000371 
0.000387 
0.000404 
0.000421 
0.000439 
0.000457 
0.000476 
0.000495 
0.000515 
0.000536 
0.000557 
0.000579 
0.000602 
0.000625 
0.000648 
0.000673 
0.000698 
0.000723 
0.000749 
0.000776 
0.000804 
0.000832 
0.000861 
0.000890 
0.000920 
0.000951 
0.000982 
0.001014 
0.001046 
0.001079 
0.001113 
0.001148 
0.001183 
0.001218 
0.001254 
0.001291 
0.001328 
0.001366 
0.001405 
0.001444 
0.001483 
0.001523 
0.001563 
0.001604 
0.001646 
0.001688 
0.001730 
0.001773 
0.001816 
0.001859 
0.001903 
0.001948 
0.001992 
0.002037 
0.002082 
0.002128 
0.002173 
0.002219 
0.002265 
0.002311 
0.002358 
0.002404 
0.002451 
0.002498 
0.002545 
0.002592 
0.002638 
0.002685 
0.002732 
0.002779 
0.002826 
0.002872 
0.002919 
0.002965 
0.003011 
0.003057 
0.003103 
0.003148 
0.003193 
0.003238 
0.003283 
0.003327 
0.003371 
0.003414 
0.003457 
0.003500 
0.003542 
0.003583 
0.003624 
0.003665 
0.003705 
0.003744 
0.003783 
0.003822 
0.003859 
0.003896 
0.003932 
0.003968 
0.004003 
0.004037 
0.004070 
0.004103 
0.004135 
0.004166 
0.004196 
0.004226 
0.004254 
0.004282 
0.004309 
0.004335 
0.004360 
0.004384 
0.004408 
0.004430 
0.004451 
0.004472 
0.004491 
0.004510 
0.004527 
0.004544 
0.004560 
0.004574 
0.004588 
0.004600 
0.004612 
0.004622 
0.004632 
0.004640 
0.004647 
0.004654 
0.004659 
0.004663 
0.004666 
0.004668 
0.004669 
0.000000 
0.000000 
0.000000 
0.000000 
0.000000 
0.000000 
0.000000 
0.000000 
0.000000 
0.000000 
0.000000 
0.000000 
0.000000 
0.000000 
0.000000 
0.000000 
0.000000 
0.000000 
0.000000 
0.000000 
0.000000 
0.000000 
0.000000 
0.000000 
0.000000 
0.000000 
0.000000 
0.000000 
0.000000 
0.000000 
0.000000 
0.000000 
0.000000 
0.000000 
0.000000 
0.000000 
0.000000 
0.000000 
0.000000 
0.000000 
0.000000 
0.000000 
0.000000 
0.000000 
0.000000 
0.000000 
0.000000 
0.000000 
0.000000 
0.000000 
0.000000 
0.000000 
0.000000 
0.000000 
0.000000 
0.000000 
0.000000 
0.000000 
0.000000 
0.000000 
0.000001 
0.000001 
0.000001 
0.000001 
0.000001 
0.000001 
0.000001 
0.000001 
0.000001 
0.000001 
0.000001 
0.000001 
0.000001 
0.000001 
0.000002 
0.000002 
0.000002 
0.000002 
0.000002 
0.000002 
0.000003 
0.000003 
0.000003 
0.000003 
0.000004 
0.000004 
0.000004 
0.000004 
0.000005 
0.000005 
0.000006 
0.000006 
0.000006 
0.000007 
0.000007 
0.000008 
0.000009 
0.000009 
0.000010 
0.000011 
0.000011 
0.000012 
0.000013 
0.000014 
0.000015 
0.000016 
0.000017 
0.000018 
0.000020 
0.000021 
0.000022 
0.000024 
0.000025 
0.000027 
0.000029 
0.000031 
0.000033 
0.000035 
0.000037 
0.000040 
0.000042 
0.000045 
0.000048 
0.000051 
0.000054 
0.000057 
0.000061 
0.000065 
0.000068 
0.000073 
0.000077 
0.000081 
0.000086 
0.000091 
0.000096 
0.000102 
0.000108 
0.000114 
0.000120 
0.000127 
0.000134 
0.000141 
0.000149 
0.000157 
0.000166 
0.000174 
0.000184 
0.000193 
0.000203 
0.000214 
0.000224 
0.000236 
0.000248 
0.000260 
0.000273 
0.000286 
0.000300 
0.000314 
0.000329 
0.000344 
0.000360 
0.000377 
0.000394 
0.000412 
0.000430 
0.000449 
0.000469 
0.000489 
0.000510 
0.000532 
0.000555 
0.000578 
0.000602 
0.000626 
0.000651 
0.000678 
0.000704 
0.000732 
0.000760 
0.000789 
0.000819 
0.000850 
0.000881 
0.000913 
0.000946 
0.000980 
0.001015 
0.001050 
0.001086 
0.001123 
0.001161 
0.001200 
0.001239 
0.001279 
0.001320 
0.001362 
0.001404 
0.001447 
0.001491 
0.001536 
0.001581 
0.001628 
0.001674 
0.001722 
0.001770 
0.001819 
0.001869 
0.001919 
0.001970 
0.002021 
0.002073 
0.002125 
0.002179 
0.002232 
0.002286 
0.002341 
0.002396 
0.002451 
0.002507 
0.002563 
0.002620 
0.002677 
0.002734 
0.002791 
0.002849 
0.002907 
0.002965 
0.003023 
0.003082 
0.003140 
0.003199 
0.003257 
0.003316 
0.003374 
0.003433 
0.003491 
0.003550 
0.003608 
0.003666 
0.003724 
0.003781 
0.003839 
0.003896 
0.003953 
0.004009 
0.004065 
0.004121 
0.004176 
0.004230 
0.004284 
0.004338 
0.004391 
0.004444 
0.004496 
0.004547 
0.004597 
0.004647 
0.004696 
0.004745 
0.004792 
0.004839 
0.004885 
0.004931 
0.004975 
0.005018 
0.005061 
0.005102 
0.005143 
0.005183 
0.005222 
0.005259 
0.005296 
0.005331 
0.005366 
0.005399 
0.005432 
0.005463 
0.005493 
0.005522 
0.005550 
0.005577 
0.005602 
0.005626 
0.005649 
0.005671 
0.005692 
0.005711 
0.005729 
0.005746 
0.005762 
0.005776 
0.005789 
0.005801 
0.005811 
0.005820 
0.005828 
0.005835 
0.005840 
0.005844 
0.005847 
0.005848 
0.000000 
0.000000 
0.000000 
0.000000 
0.000000 
0.000000 
0.000000 
0.000000 
0.000000 
0.000000 
0.000000 
0.000000 
0.000000 
0.000000 
0.000000 
0.000000 
0.000000 
0.000000 
0.000000 
0.000000 
0.000000 
0.000000 
0.000000 
0.000000 
0.000000 
0.000000 
0.000000 
0.000000 
0.000000 
0.000000 
0.000000 
0.000000 
0.000000 
0.000000 
0.000000 
0.000000 
0.000000 
0.000000 
0.000000 
0.000000 
0.000000 
0.000000 
0.000000 
0.000000 
0.000000 
0.000000 
0.000000 
0.000000 
0.000000 
0.000000 
0.000000 
0.000000 
0.000000 
0.000000 
0.000000 
0.000000 
0.000000 
0.000000 
0.000001 
0.000001 
0.000001 
0.000001 
0.000001 
0.000001 
0.000001 
0.000001 
0.000001 
0.000001 
0.000001 
0.000001 
0.000001 
0.000002 
0.000002 
0.000002 
0.000002 
0.000002 
0.000002 
0.000003 
0.000003 
0.000003 
0.000003 
0.000003 
0.000004 
0.000004 
0.000004 
0.000005 
0.000005 
0.000005 
0.000006 
0.000006 
0.000007 
0.000007 
0.000008 
0.000008 
0.000009 
0.000010 
0.000010 
0.000011 
0.000012 
0.000013 
0.000014 
0.000015 
0.000016 
0.000017 
0.000018 
0.000020 
0.000021 
0.000022 
0.000024 
0.000026 
0.000027 
0.000029 
0.000031 
0.000033 
0.000035 
0.000038 
0.000040 
0.000043 
0.000046 
0.000049 
0.000052 
0.000055 
0.000058 
0.000062 
0.000066 
0.000070 
0.000074 
0.000079 
0.000083 
0.000088 
0.000094 
0.000099 
0.000105 
0.000111 
0.000118 
0.000124 
0.000132 
0.000139 
0.000147 
0.000155 
0.000164 
0.000172 
0.000182 
0.000192 
0.000202 
0.000213 
0.000224 
0.000235 
0.000248 
0.000260 
0.000274 
0.000287 
0.000302 
0.000317 
0.000332 
0.000348 
0.000365 
0.000382 
0.000401 
0.000419 
0.000439 
0.000459 
0.000480 
0.000501 
0.000524 
0.000547 
0.000571 
0.000596 
0.000621 
0.000648 
0.000675 
0.000703 
0.000732 
0.000762 
0.000792 
0.000824 
0.000856 
0.000890 
0.000924 
0.000959 
0.000995 
0.001033 
0.001071 
0.001110 
0.001150 
0.001191 
0.001232 
0.001275 
0.001319 
0.001364 
0.001409 
0.001456 
0.001504 
0.001552 
0.001602 
0.001652 
0.001703 
0.001756 
0.001809 
0.001863 
0.001918 
0.001973 
0.002030 
0.002087 
0.002145 
0.002204 
0.002264 
0.002325 
0.002386 
0.002448 
0.002510 
0.002574 
0.002638 
0.002702 
0.002767 
0.002833 
0.002899 
0.002966 
0.003033 
0.003101 
0.003169 
0.003237 
0.003306 
0.003375 
0.003444 
0.003514 
0.003584 
0.003654 
0.003724 
0.003794 
0.003865 
0.003935 
0.004005 
0.004076 
0.004146 
0.004216 
0.004286 
0.004356 
0.004425 
0.004495 
0.004564 
0.004633 
0.004701 
0.004769 
0.004836 
0.004903 
0.004970 
0.005036 
0.005101 
0.005166 
0.005231 
0.005294 
0.005357 
0.005419 
0.005480 
0.005541 
0.005600 
0.005659 
0.005717 
0.005774 
0.005830 
0.005885 
0.005939 
0.005992 
0.006044 
0.006095 
0.006145 
0.006193 
0.006241 
0.006287 
0.006332 
0.006376 
0.006418 
0.006459 
0.006499 
0.006538 
0.006575 
0.006611 
0.006646 
0.006679 
0.006711 
0.006741 
0.006770 
0.006797 
0.006823 
0.006848 
0.006871 
0.006893 
0.006913 
0.006931 
0.006949 
0.006964 
0.006978 
0.006991 
0.007001 
0.007011 
0.007019 
0.007025 
0.007030 
0.007033 
0.007034 
0.000000 
0.000000 
0.000000 
0.000000 
0.000000 
0.000000 
0.000000 
0.000000 
0.000000 
0.000000 
0.000000 
0.000000 
0.000000 
0.000000 
0.000000 
0.000000 
0.000000 
0.000000 
0.000000 
0.000000 
0.000000 
0.000000 
0.000000 
0.000000 
0.000000 
0.000000 
0.000000 
0.000000 
0.000000 
0.000000 
0.000000 
0.000000 
0.000000 
0.000000 
0.000000 
0.000000 
0.000000 
0.000000 
0.000000 
0.000000 
0.000000 
0.000000 
0.000000 
0.000000 
0.000000 
0.000000 
0.000000 
0.000000 
0.000000 
0.000000 
0.000000 
0.000000 
0.000000 
0.000000 
0.000000 
0.000000 
0.000001 
0.000001 
0.000001 
0.000001 
0.000001 
0.000001 
0.000001 
0.000001 
0.000001 
0.000001 
0.000001 
0.000001 
0.000001 
0.000002 
0.000002 
0.000002 
0.000002 
0.000002 
0.000002 
0.000003 
0.000003 
0.000003 
0.000003 
0.000003 
0.000004 
0.000004 
0.000004 
0.000005 
0.000005 
0.000006 
0.000006 
0.000006 
0.000007 
0.000007 
0.000008 
0.000009 
0.000009 
0.000010 
0.000011 
0.000012 
0.000012 
0.000013 
0.000014 
0.000015 
0.000016 
0.000018 
0.000019 
0.000020 
0.000022 
0.000023 
0.000025 
0.000027 
0.000028 
0.000030 
0.000032 
0.000035 
0.000037 
0.000039 
0.000042 
0.000045 
0.000048 
0.000051 
0.000054 
0.000058 
0.000061 
0.000065 
0.000069 
0.000074 
0.000078 
0.000083 
0.000088 
0.000094 
0.000099 
0.000105 
0.000112 
0.000118 
0.000125 
0.000132 
0.000140 
0.000148 
0.000156 
0.000165 
0.000175 
0.000184 
0.000194 
0.000205 
0.000216 
0.000228 
0.000240 
0.000253 
0.000266 
0.000280 
0.000294 
0.000309 
0.000325 
0.000341 
0.000358 
0.000376 
0.000394 
0.000414 
0.000433 
0.000454 
0.000476 
0.000498 
0.000521 
0.000545 
0.000569 
0.000595 
0.000622 
0.000649 
0.000677 
0.000707 
0.000737 
0.000768 
0.000800 
0.000833 
0.000867 
0.000903 
0.000939 
0.000976 
0.001015 
0.001054 
0.001095 
0.001136 
0.001179 
0.001223 
0.001268 
0.001314 
0.001361 
0.001409 
0.001458 
0.001509 
0.001560 
0.001613 
0.001667 
0.001722 
0.001778 
0.001835 
0.001893 
0.001952 
0.002013 
0.002074 
0.002137 
0.002200 
0.002265 
0.002330 
0.002396 
0.002464 
0.002532 
0.002601 
0.002672 
0.002743 
0.002814 
0.002887 
0.002961 
0.003035 
0.003110 
0.003185 
0.003262 
0.003339 
0.003416 
0.003494 
0.003573 
0.003652 
0.003732 
0.003812 
0.003892 
0.003973 
0.004054 
0.004135 
0.004217 
0.004299 
0.004381 
0.004463 
0.004545 
0.004627 
0.004709 
0.004791 
0.004873 
0.004955 
0.005037 
0.005118 
0.005199 
0.005280 
0.005360 
0.005441 
0.005520 
0.005599 
0.005678 
0.005756 
0.005834 
0.005910 
0.005987 
0.006062 
0.006137 
0.006211 
0.006284 
0.006356 
0.006427 
0.006497 
0.006567 
0.006635 
0.006702 
0.006769 
0.006834 
0.006898 
0.006960 
0.007022 
0.007082 
0.007141 
0.007199 
0.007255 
0.007310 
0.007364 
0.007416 
0.007467 
0.007516 
0.007564 
0.007610 
0.007655 
0.007698 
0.007740 
0.007780 
0.007819 
0.007856 
0.007891 
0.007924 
0.007956 
0.007986 
0.008015 
0.008042 
0.008067 
0.008090 
0.008111 
0.008131 
0.008149 
0.008166 
0.008180 
0.008193 
0.008203 
0.008213 
0.008220 
0.008225 
0.008229 
0.008231 
0.000000 
0.000000 
0.000000 
0.000000 
0.000000 
0.000000 
0.000000 
0.000000 
0.000000 
0.000000 
0.000000 
0.000000 
0.000000 
0.000000 
0.000000 
0.000000 
0.000000 
0.000000 
0.000000 
0.000000 
0.000000 
0.000000 
0.000000 
0.000000 
0.000000 
0.000000 
0.000000 
0.000000 
0.000000 
0.000000 
0.000000 
0.000000 
0.000000 
0.000000 
0.000000 
0.000000 
0.000000 
0.000000 
0.000000 
0.000000 
0.000000 
0.000000 
0.000000 
0.000000 
0.000000 
0.000000 
0.000000 
0.000000 
0.000000 
0.000000 
0.000000 
0.000000 
0.000000 
0.000000 
0.000001 
0.000001 
0.000001 
0.000001 
0.000001 
0.000001 
0.000001 
0.000001 
0.000001 
0.000001 
0.000001 
0.000001 
0.000001 
0.000002 
0.000002 
0.000002 
0.000002 
0.000002 
0.000002 
0.000003 
0.000003 
0.000003 
0.000003 
0.000004 
0.000004 
0.000004 
0.000004 
0.000005 
0.000005 
0.000006 
0.000006 
0.000006 
0.000007 
0.000008 
0.000008 
0.000009 
0.000009 
0.000010 
0.000011 
0.000012 
0.000013 
0.000014 
0.000015 
0.000016 
0.000017 
0.000018 
0.000019 
0.000021 
0.000022 
0.000024 
0.000025 
0.000027 
0.000029 
0.000031 
0.000033 
0.000036 
0.000038 
0.000041 
0.000043 
0.000046 
0.000049 
0.000053 
0.000056 
0.000060 
0.000063 
0.000068 
0.000072 
0.000076 
0.000081 
0.000086 
0.000092 
0.000097 
0.000103 
0.000110 
0.000116 
0.000123 
0.000130 
0.000138 
0.000146 
0.000155 
0.000164 
0.000173 
0.000183 
0.000193 
0.000204 
0.000215 
0.000227 
0.000239 
0.000252 
0.000266 
0.000280 
0.000295 
0.000310 
0.000327 
0.000343 
0.000361 
0.000379 
0.000398 
0.000418 
0.000439 
0.000460 
0.000482 
0.000505 
0.000529 
0.000554 
0.000580 
0.000607 
0.000635 
0.000664 
0.000693 
0.000724 
0.000756 
0.000789 
0.000823 
0.000858 
0.000894 
0.000931 
0.000970 
0.001010 
0.001050 
0.001092 
0.001136 
0.001180 
0.001226 
0.001273 
0.001321 
0.001370 
0.001421 
0.001473 
0.001526 
0.001581 
0.001637 
0.001694 
0.001752 
0.001812 
0.001873 
0.001935 
0.001998 
0.002063 
0.002129 
0.002196 
0.002264 
0.002334 
0.002405 
0.002477 
0.002550 
0.002624 
0.002700 
0.002776 
0.002854 
0.002932 
0.003012 
0.003093 
0.003175 
0.003257 
0.003341 
0.003425 
0.003511 
0.003597 
0.003684 
0.003771 
0.003859 
0.003949 
0.004038 
0.004128 
0.004219 
0.004310 
0.004402 
0.004494 
0.004587 
0.004680 
0.004773 
0.004867 
0.004960 
0.005054 
0.005148 
0.005242 
0.005336 
0.005430 
0.005523 
0.005617 
0.005711 
0.005804 
0.005897 
0.005990 
0.006082 
0.006174 
0.006265 
0.006356 
0.006446 
0.006536 
0.006625 
0.006713 
0.006801 
0.006888 
0.006974 
0.007059 
0.007143 
0.007226 
0.007309 
0.007390 
0.007470 
0.007549 
0.007626 
0.007703 
0.007778 
0.007852 
0.007925 
0.007996 
0.008066 
0.008135 
0.008202 
0.008268 
0.008332 
0.008394 
0.008455 
0.008514 
0.008572 
0.008628 
0.008682 
0.008735 
0.008786 
0.008835 
0.008882 
0.008928 
0.008971 
0.009013 
0.009053 
0.009091 
0.009127 
0.009162 
0.009194 
0.009224 
0.009253 
0.009279 
0.009304 
0.009326 
0.009347 
0.009365 
0.009381 
0.009396 
0.009408 
0.009418 
0.009426 
0.009433 
0.009437 
0.009439 
0.000000 
0.000000 
0.000000 
0.000000 
0.000000 
0.000000 
0.000000 
0.000000 
0.000000 
0.000000 
0.000000 
0.000000 
0.000000 
0.000000 
0.000000 
0.000000 
0.000000 
0.000000 
0.000000 
0.000000 
0.000000 
0.000000 
0.000000 
0.000000 
0.000000 
0.000000 