# vtk DataFile Version 3.0
results.vtk
ASCII
DATASET RECTILINEAR_GRID
DIMENSIONS 301 301 1
X_COORDINATES 301 double
0.000000 0.003333 0.006667 0.010000 0.013333 0.016667 0.020000 0.023333 0.026667 0.030000 0.033333 0.036667 0.040000 0.043333 0.046667 0.050000 0.053333 0.056667 0.060000 0.063333 0.066667 0.070000 0.073333 0.076667 0.080000 0.083333 0.086667 0.090000 0.093333 0.096667 0.100000 0.103333 0.106667 0.110000 0.113333 0.116667 0.120000 0.123333 0.126667 0.130000 0.133333 0.136667 0.140000 0.143333 0.146667 0.150000 0.153333 0.156667 0.160000 0.163333 0.166667 0.170000 0.173333 0.176667 0.180000 0.183333 0.186667 0.190000 0.193333 0.196667 0.200000 0.203333 0.206667 0.210000 0.213333 0.216667 0.220000 0.223333 0.226667 0.230000 0.233333 0.236667 0.240000 0.243333 0.246667 0.250000 0.253333 0.256667 0.260000 0.263333 0.266667 0.270000 0.273333 0.276667 0.280000 0.283333 0.286667 0.290000 0.293333 0.296667 0.300000 0.303333 0.306667 0.310000 0.313333 0.316667 0.320000 0.323333 0.326667 0.330000 0.333333 0.336667 0.340000 0.343333 0.346667 0.350000 0.353333 0.356667 0.360000 0.363333 0.366667 0.370000 0.373333 0.376667 0.380000 0.383333 0.386667 0.390000 0.393333 0.396667 0.400000 0.403333 0.406667 0.410000 0.413333 0.416667 0.420000 0.423333 0.426667 0.430000 0.433333 0.436667 0.440000 0.443333 0.446667 0.450000 0.453333 0.456667 0.460000 0.463333 0.466667 0.470000 0.473333 0.476667 0.480000 0.483333 0.486667 0.490000 0.493333 0.496667 0.500000 0.503333 0.506667 0.510000 0.513333 0.516667 0.520000 0.523333 0.526667 0.530000 0.533333 0.536667 0.540000 0.543333 0.546667 0.550000 0.553333 0.556667 0.560000 0.563333 0.566667 0.570000 0.573333 0.576667 0.580000 0.583333 0.586667 0.590000 0.593333 0.596667 0.600000 0.603333 0.606667 0.610000 0.613333 0.616667 0.620000 0.623333 0.626667 0.630000 0.633333 0.636667 0.640000 0.643333 0.646667 0.650000 0.653333 0.656667 0.660000 0.663333 0.666667 0.670000 0.673333 0.676667 0.680000 0.683333 0.686667 0.690000 0.693333 0.696667 0.700000 0.703333 0.706667 0.710000 0.713333 0.716667 0.720000 0.723333 0.726667 0.730000 0.733333 0.736667 0.740000 0.743333 0.746667 0.750000 0.753333 0.756667 0.760000 0.763333 0.766667 0.770000 0.773333 0.776667 0.780000 0.783333 0.786667 0.790000 0.793333 0.796667 0.800000 0.803333 0.806667 0.810000 0.813333 0.816667 0.820000 0.823333 0.826667 0.830000 0.833333 0.836667 0.840000 0.843333 0.846667 0.850000 0.853333 0.856667 0.860000 0.863333 0.866667 0.870000 0.873333 0.876667 0.880000 0.883333 0.886667 0.890000 0.893333 0.896667 0.900000 0.903333 0.906667 0.910000 0.913333 0.916667 0.920000 0.923333 0.926667 0.930000 0.933333 0.936667 0.940000 0.943333 0.946667 0.950000 0.953333 0.956667 0.960000 0.963333 0.966667 0.970000 0.973333 0.976667 0.980000 0.983333 0.986667 0.990000 0.993333 0.996667 1.000000 
Y_COORDINATES 301 double
0.000000 0.003333 0.006667 0.010000 0.013333 0.016667 0.020000 0.023333 0.026667 0.030000 0.033333 0.036667 0.040000 0.043333 0.046667 0.050000 0.053333 0.056667 0.060000 0.063333 0.066667 0.070000 0.073333 0.076667 0.080000 0.083333 0.086667 0.090000 0.093333 0.096667 0.100000 0.103333 0.106667 0.110000 0.113333 0.116667 0.120000 0.123333 0.126667 0.130000 0.133333 0.136667 0.140000 0.143333 0.146667 0.150000 0.153333 0.156667 0.160000 0.163333 0.166667 0.170000 0.173333 0.176667 0.180000 0.183333 0.186667 0.190000 0.193333 0.196667 0.200000 0.203333 0.206667 0.210000 0.213333 0.216667 0.220000 0.223333 0.226667 0.230000 0.233333 0.236667 0.240000 0.243333 0.246667 0.250000 0.253333 0.256667 0.260000 0.263333 0.266667 0.270000 0.273333 0.276667 0.280000 0.283333 0.286667 0.290000 0.293333 0.296667 0.300000 0.303333 0.306667 0.310000 0.313333 0.316667 0.320000 0.323333 0.326667 0.330000 0.333333 0.336667 0.340000 0.343333 0.346667 0.350000 0.353333 0.356667 0.360000 0.363333 0.366667 0.370000 0.373333 0.376667 0.380000 0.383333 0.386667 0.390000 0.393333 0.396667 0.400000 0.403333 0.406667 0.410000 0.413333 0.416667 0.420000 0.423333 0.426667 0.430000 0.433333 0.436667 0.440000 0.443333 0.446667 0.450000 0.453333 0.456667 0.460000 0.463333 0.466667 0.470000 0.473333 0.476667 0.480000 0.483333 0.486667 0.490000 0.493333 0.496667 0.500000 0.503333 0.506667 0.510000 0.513333 0.516667 0.520000 0.523333 0.526667 0.530000 0.533333 0.536667 0.540000 0.543333 0.546667 0.550000 0.553333 0.556667 0.560000 0.563333 0.566667 0.570000 0.573333 0.576667 0.580000 0.583333 0.586667 0.590000 0.593333 0.596667 0.600000 0.603333 0.606667 0.610000 0.613333 0.616667 0.620000 0.623333 0.626667 0.630000 0.633333 0.636667 0.640000 0.643333 0.646667 0.650000 0.653333 0.656667 0.660000 0.663333 0.666667 0.670000 0.673333 0.676667 0.680000 0.683333 0.686667 0.690000 0.693333 0.696667 0.700000 0.703333 0.706667 0.710000 0.713333 0.716667 0.720000 0.723333 0.726667 0.730000 0.733333 0.736667 0.740000 0.743333 0.746667 0.750000 0.753333 0.756667 0.760000 0.763333 0.766667 0.770000 0.773333 0.776667 0.780000 0.783333 0.786667 0.790000 0.793333 0.796667 0.800000 0.803333 0.806667 0.810000 0.813333 0.816667 0.820000 0.823333 0.826667 0.830000 0.833333 0.836667 0.840000 0.843333 0.846667 0.850000 0.853333 0.856667 0.860000 0.863333 0.866667 0.870000 0.873333 0.876667 0.880000 0.883333 0.886667 0.890000 0.893333 0.896667 0.900000 0.903333 0.906667 0.910000 0.913333 0.916667 0.920000 0.923333 0.926667 0.930000 0.933333 0.936667 0.940000 0.943333 0.946667 0.950000 0.953333 0.956667 0.960000 0.963333 0.966667 0.970000 0.973333 0.976667 0.980000 0.983333 0.986667 0.990000 0.993333 0.996667 1.000000 
Z_COORDINATES 1 double
0
POINT_DATA 90601 
FIELD FieldData 1 
Concentração 1 90601 double 
0.000000 
0.000000 
0.000000 
0.000000 
0.000000 
0.000000 
0.000000 
0.000000 
0.000000 
0.000000 
0.000000 
0.000000 
0.000000 
0.000000 
0.000000 
0.000000 
0.000000 
0.000000 
0.000000 
0.000000 
0.000000 
0.000000 
0.000000 
0.000000 
0.000000 
0.000000 
0.000000 
0.000000 
0.000000 
0.000000 
0.000000 
0.000000 
0.000000 
0.000000 
0.000000 
0.000000 
0.000000 
0.000000 
0.000000 
0.000000 
0.000000 
0.000000 
0.000000 
0.000000 
0.000000 
0.000000 
0.000000 
0.000000 
0.000000 
0.000000 
0.000000 
0.000000 
0.000000 
0.000000 
0.000000 
0.000000 
0.000000 
0.000000 
0.000000 
0.000000 
0.000000 
0.000000 
0.000000 
0.000000 
0.000000 
0.000000 
0.000000 
0.000000 
0.000000 
0.000000 
0.000000 
0.000000 
0.000000 
0.000000 
0.000000 
0.000000 
0.000000 
0.000000 
0.000000 
0.000000 
0.000000 
0.000000 
0.000000 
0.000000 
0.000000 
0.000000 
0.000000 
0.000000 
0.000000 
0.000000 
0.000000 
0.000000 
0.000000 
0.000000 
0.000000 
0.000000 
0.000000 
0.000000 
0.000000 
0.000000 
0.000000 
0.000000 
0.000001 
0.000001 
0.000001 
0.000001 
0.000001 
0.000001 
0.000001 
0.000001 
0.000001 
0.000001 
0.000001 
0.000001 
0.000001 
0.000001 
0.000001 
0.000001 
0.000002 
0.000002 
0.000002 
0.000002 
0.000002 
0.000002 
0.000002 
0.000002 
0.000003 
0.000003 
0.000003 
0.000003 
0.000003 
0.000004 
0.000004 
0.000004 
0.000004 
0.000005 
0.000005 
0.000005 
0.000005 
0.000006 
0.000006 
0.000006 
0.000007 
0.000007 
0.000008 
0.000008 
0.000009 
0.000009 
0.000010 
0.000010 
0.000011 
0.000011 
0.000012 
0.000012 
0.000013 
0.000014 
0.000015 
0.000015 
0.000016 
0.000017 
0.000018 
0.000019 
0.000020 
0.000021 
0.000022 
0.000023 
0.000024 
0.000025 
0.000026 
0.000027 
0.000028 
0.000030 
0.000031 
0.000033 
0.000034 
0.000035 
0.000037 
0.000039 
0.000040 
0.000042 
0.000044 
0.000046 
0.000048 
0.000049 
0.000051 
0.000054 
0.000056 
0.000058 
0.000060 
0.000062 
0.000065 
0.000067 
0.000070 
0.000072 
0.000075 
0.000078 
0.000080 
0.000083 
0.000086 
0.000089 
0.000092 
0.000095 
0.000098 
0.000102 
0.000105 
0.000108 
0.000112 
0.000115 
0.000119 
0.000122 
0.000126 
0.000130 
0.000134 
0.000137 
0.000141 
0.000145 
0.000149 
0.000154 
0.000158 
0.000162 
0.000166 
0.000170 
0.000175 
0.000179 
0.000184 
0.000188 
0.000193 
0.000197 
0.000202 
0.000206 
0.000211 
0.000216 
0.000220 
0.000225 
0.000230 
0.000235 
0.000239 
0.000244 
0.000249 
0.000254 
0.000259 
0.000263 
0.000268 
0.000273 
0.000278 
0.000283 
0.000287 
0.000292 
0.000297 
0.000302 
0.000306 
0.000311 
0.000316 
0.000320 
0.000325 
0.000329 
0.000334 
0.000338 
0.000343 
0.000347 
0.000351 
0.000355 
0.000360 
0.000364 
0.000368 
0.000372 
0.000375 
0.000379 
0.000383 
0.000387 
0.000390 
0.000394 
0.000397 
0.000400 
0.000403 
0.000407 
0.000410 
0.000412 
0.000415 
0.000418 
0.000420 
0.000423 
0.000425 
0.000427 
0.000430 
0.000432 
0.000434 
0.000435 
0.000437 
0.000438 
0.000440 
0.000441 
0.000442 
0.000443 
0.000444 
0.000445 
0.000446 
0.000446 
0.000447 
0.000447 
0.000447 
0.000000 
0.000000 
0.000000 
0.000000 
0.000000 
0.000000 
0.000000 
0.000000 
0.000000 
0.000000 
0.000000 
0.000000 
0.000000 
0.000000 
0.000000 
0.000000 
0.000000 
0.000000 
0.000000 
0.000000 
0.000000 
0.000000 
0.000000 
0.000000 
0.000000 
0.000000 
0.000000 
0.000000 
0.000000 
0.000000 
0.000000 
0.000000 
0.000000 
0.000000 
0.000000 
0.000000 
0.000000 
0.000000 
0.000000 
0.000000 
0.000000 
0.000000 
0.000000 
0.000000 
0.000000 
0.000000 
0.000000 
0.000000 
0.000000 
0.000000 
0.000000 
0.000000 
0.000000 
0.000000 
0.000000 
0.000000 
0.000000 
0.000000 
0.000000 
0.000000 
0.000000 
0.000000 
0.000000 
0.000000 
0.000000 
0.000000 
0.000000 
0.000000 
0.000000 
0.000000 
0.000000 
0.000000 
0.000000 
0.000000 
0.000000 
0.000000 
0.000000 
0.000000 
0.000000 
0.000000 
0.000000 
0.000000 
0.000000 
0.000000 
0.000000 
0.000000 
0.000000 
0.000000 
0.000000 
0.000000 
0.000000 
0.000000 
0.000000 
0.000001 
0.000001 
0.000001 
0.000001 
0.000001 
0.000001 
0.000001 
0.000001 
0.000001 
0.000001 
0.000001 
0.000001 
0.000001 
0.000001 
0.000001 
0.000002 
0.000002 
0.000002 
0.000002 
0.000002 
0.000002 
0.000002 
0.000003 
0.000003 
0.000003 
0.000003 
0.000003 
0.000004 
0.000004 
0.000004 
0.000004 
0.000005 
0.000005 
0.000005 
0.000006 
0.000006 
0.000006 
0.000007 
0.000007 
0.000008 
0.000008 
0.000009 
0.000009 
0.000010 
0.000010 
0.000011 
0.000012 
0.000012 
0.000013 
0.000014 
0.000015 
0.000015 
0.000016 
0.000017 
0.000018 
0.000019 
0.000020 
0.000021 
0.000023 
0.000024 
0.000025 
0.000026 
0.000028 
0.000029 
0.000031 
0.000032 
0.000034 
0.000036 
0.000037 
0.000039 
0.000041 
0.000043 
0.000045 
0.000048 
0.000050 
0.000052 
0.000055 
0.000057 
0.000060 
0.000063 
0.000065 
0.000068 
0.000071 
0.000074 
0.000078 
0.000081 
0.000084 
0.000088 
0.000092 
0.000095 
0.000099 
0.000103 
0.000108 
0.000112 
0.000116 
0.000121 
0.000125 
0.000130 
0.000135 
0.000140 
0.000145 
0.000151 
0.000156 
0.000162 
0.000167 
0.000173 
0.000179 
0.000185 
0.000191 
0.000198 
0.000204 
0.000211 
0.000218 
0.000224 
0.000231 
0.000239 
0.000246 
0.000253 
0.000261 
0.000268 
0.000276 
0.000284 
0.000292 
0.000300 
0.000308 
0.000317 
0.000325 
0.000333 
0.000342 
0.000351 
0.000360 
0.000368 
0.000377 
0.000387 
0.000396 
0.000405 
0.000414 
0.000423 
0.000433 
0.000442 
0.000452 
0.000461 
0.000471 
0.000480 
0.000490 
0.000500 
0.000509 
0.000519 
0.000529 
0.000538 
0.000548 
0.000557 
0.000567 
0.000577 
0.000586 
0.000596 
0.000605 
0.000615 
0.000624 
0.000633 
0.000642 
0.000652 
0.000661 
0.000670 
0.000679 
0.000687 
0.000696 
0.000705 
0.000713 
0.000721 
0.000729 
0.000738 
0.000745 
0.000753 
0.000761 
0.000768 
0.000775 
0.000783 
0.000790 
0.000796 
0.000803 
0.000809 
0.000815 
0.000821 
0.000827 
0.000833 
0.000838 
0.000843 
0.000848 
0.000853 
0.000857 
0.000862 
0.000866 
0.000869 
0.000873 
0.000876 
0.000879 
0.000882 
0.000885 
0.000887 
0.000889 
0.000891 
0.000892 
0.000894 
0.000895 
0.000895 
0.000896 
0.000896 
0.000000 
0.000000 
0.000000 
0.000000 
0.000000 
0.000000 
0.000000 
0.000000 
0.000000 
0.000000 
0.000000 
0.000000 
0.000000 
0.000000 
0.000000 
0.000000 
0.000000 
0.000000 
0.000000 
0.000000 
0.000000 
0.000000 
0.000000 
0.000000 
0.000000 
0.000000 
0.000000 
0.000000 
0.000000 
0.000000 
0.000000 
0.000000 
0.000000 
0.000000 
0.000000 
0.000000 
0.000000 
0.000000 
0.000000 
0.000000 
0.000000 
0.000000 
0.000000 
0.000000 
0.000000 
0.000000 
0.000000 
0.000000 
0.000000 
0.000000 
0.000000 
0.000000 
0.000000 
0.000000 
0.000000 
0.000000 
0.000000 
0.000000 
0.000000 
0.000000 
0.000000 
0.000000 
0.000000 
0.000000 
0.000000 
0.000000 
0.000000 
0.000000 
0.000000 
0.000000 
0.000000 
0.000000 
0.000000 
0.000000 
0.000000 
0.000000 
0.000000 
0.000000 
0.000000 
0.000000 
0.000000 
0.000000 
0.000000 
0.000000 
0.000000 
0.000000 
0.000000 
0.000001 
0.000001 
0.000001 
0.000001 
0.000001 
0.000001 
0.000001 
0.000001 
0.000001 
0.000001 
0.000001 
0.000001 
0.000001 
0.000001 
0.000001 
0.000002 
0.000002 
0.000002 
0.000002 
0.000002 
0.000002 
0.000002 
0.000003 
0.000003 
0.000003 
0.000003 
0.000003 
0.000004 
0.000004 
0.000004 
0.000004 
0.000005 
0.000005 
0.000005 
0.000006 
0.000006 
0.000007 
0.000007 
0.000008 
0.000008 
0.000009 
0.000009 
0.000010 
0.000010 
0.000011 
0.000012 
0.000012 
0.000013 
0.000014 
0.000015 
0.000016 
0.000017 
0.000018 
0.000019 
0.000020 
0.000021 
0.000022 
0.000023 
0.000025 
0.000026 
0.000028 
0.000029 
0.000031 
0.000032 
0.000034 
0.000036 
0.000038 
0.000040 
0.000042 
0.000044 
0.000046 
0.000049 
0.000051 
0.000054 
0.000057 
0.000059 
0.000062 
0.000065 
0.000069 
0.000072 
0.000075 
0.000079 
0.000083 
0.000086 
0.000090 
0.000095 
0.000099 
0.000103 
0.000108 
0.000112 
0.000117 
0.000122 
0.000128 
0.000133 
0.000139 
0.000144 
0.000150 
0.000156 
0.000163 
0.000169 
0.000176 
0.000182 
0.000190 
0.000197 
0.000204 
0.000212 
0.000220 
0.000228 
0.000236 
0.000244 
0.000253 
0.000261 
0.000270 
0.000280 
0.000289 
0.000299 
0.000308 
0.000318 
0.000329 
0.000339 
0.000350 
0.000360 
0.000371 
0.000382 
0.000394 
0.000405 
0.000417 
0.000429 
0.000441 
0.000453 
0.000465 
0.000478 
0.000491 
0.000503 
0.000516 
0.000530 
0.000543 
0.000556 
0.000570 
0.000583 
0.000597 
0.000611 
0.000625 
0.000639 
0.000653 
0.000667 
0.000682 
0.000696 
0.000710 
0.000725 
0.000739 
0.000754 
0.000768 
0.000783 
0.000797 
0.000812 
0.000826 
0.000841 
0.000855 
0.000870 
0.000884 
0.000898 
0.000913 
0.000927 
0.000941 
0.000955 
0.000969 
0.000983 
0.000996 
0.001010 
0.001023 
0.001036 
0.001049 
0.001062 
0.001075 
0.001087 
0.001100 
0.001112 
0.001124 
0.001135 
0.001147 
0.001158 
0.001169 
0.001180 
0.001190 
0.001200 
0.001210 
0.001220 
0.001229 
0.001238 
0.001247 
0.001255 
0.001263 
0.001271 
0.001278 
0.001285 
0.001292 
0.001298 
0.001304 
0.001310 
0.001315 
0.001320 
0.001325 
0.001329 
0.001333 
0.001336 
0.001340 
0.001342 
0.001345 
0.001347 
0.001348 
0.001349 
0.001350 
0.001350 
0.000000 
0.000000 
0.000000 
0.000000 
0.000000 
0.000000 
0.000000 
0.000000 
0.000000 
0.000000 
0.000000 
0.000000 
0.000000 
0.000000 
0.000000 
0.000000 
0.000000 
0.000000 
0.000000 
0.000000 
0.000000 
0.000000 
0.000000 
0.000000 
0.000000 
0.000000 
0.000000 
0.000000 
0.000000 
0.000000 
0.000000 
0.000000 
0.000000 
0.000000 
0.000000 
0.000000 
0.000000 
0.000000 
0.000000 
0.000000 
0.000000 
0.000000 
0.000000 
0.000000 
0.000000 
0.000000 
0.000000 
0.000000 
0.000000 
0.000000 
0.000000 
0.000000 
0.000000 
0.000000 
0.000000 
0.000000 
0.000000 
0.000000 
0.000000 
0.000000 
0.000000 
0.000000 
0.000000 
0.000000 
0.000000 
0.000000 
0.000000 
0.000000 
0.000000 
0.000000 
0.000000 
0.000000 
0.000000 
0.000000 
0.000000 
0.000000 
0.000000 
0.000000 
0.000000 
0.000000 
0.000000 
0.000000 
0.000000 
0.000001 
0.000001 
0.000001 
0.000001 
0.000001 
0.000001 
0.000001 
0.000001 
0.000001 
0.000001 
0.000001 
0.000001 
0.000001 
0.000001 
0.000001 
0.000002 
0.000002 
0.000002 
0.000002 
0.000002 
0.000002 
0.000002 
0.000003 
0.000003 
0.000003 
0.000003 
0.000004 
0.000004 
0.000004 
0.000004 
0.000005 
0.000005 
0.000005 
0.000006 
0.000006 
0.000006 
0.000007 
0.000007 
0.000008 
0.000008 
0.000009 
0.000010 
0.000010 
0.000011 
0.000012 
0.000012 
0.000013 
0.000014 
0.000015 
0.000016 
0.000017 
0.000018 
0.000019 
0.000020 
0.000021 
0.000022 
0.000024 
0.000025 
0.000027 
0.000028 
0.000030 
0.000031 
0.000033 
0.000035 
0.000037 
0.000039 
0.000041 
0.000044 
0.000046 
0.000048 
0.000051 
0.000054 
0.000057 
0.000060 
0.000063 
0.000066 
0.000069 
0.000073 
0.000076 
0.000080 
0.000084 
0.000088 
0.000093 
0.000097 
0.000102 
0.000106 
0.000111 
0.000117 
0.000122 
0.000127 
0.000133 
0.000139 
0.000145 
0.000152 
0.000158 
0.000165 
0.000172 
0.000179 
0.000187 
0.000195 
0.000202 
0.000211 
0.000219 
0.000228 
0.000237 
0.000246 
0.000255 
0.000265 
0.000275 
0.000285 
0.000296 
0.000306 
0.000318 
0.000329 
0.000340 
0.000352 
0.000364 
0.000377 
0.000389 
0.000402 
0.000415 
0.000429 
0.000442 
0.000456 
0.000471 
0.000485 
0.000500 
0.000515 
0.000530 
0.000545 
0.000561 
0.000577 
0.000593 
0.000610 
0.000626 
0.000643 
0.000660 
0.000677 
0.000695 
0.000712 
0.000730 
0.000748 
0.000766 
0.000785 
0.000803 
0.000822 
0.000840 
0.000859 
0.000878 
0.000897 
0.000916 
0.000936 
0.000955 
0.000974 
0.000994 
0.001013 
0.001033 
0.001052 
0.001072 
0.001091 
0.001110 
0.001130 
0.001149 
0.001169 
0.001188 
0.001207 
0.001226 
0.001245 
0.001264 
0.001283 
0.001301 
0.001320 
0.001338 
0.001356 
0.001374 
0.001392 
0.001409 
0.001426 
0.001443 
0.001460 
0.001477 
0.001493 
0.001509 
0.001524 
0.001540 
0.001555 
0.001569 
0.001583 
0.001597 
0.001611 
0.001624 
0.001637 
0.001649 
0.001661 
0.001673 
0.001684 
0.001695 
0.001705 
0.001715 
0.001725 
0.001734 
0.001742 
0.001750 
0.001758 
0.001765 
0.001772 
0.001778 
0.001784 
0.001789 
0.001793 
0.001797 
0.001801 
0.001804 
0.001807 
0.001809 
0.001810 
0.001811 
0.001812 
0.000000 
0.000000 
0.000000 
0.000000 
0.000000 
0.000000 
0.000000 
0.000000 
0.000000 
0.000000 
0.000000 
0.000000 
0.000000 
0.000000 
0.000000 
0.000000 
0.000000 
0.000000 
0.000000 
0.000000 
0.000000 
0.000000 
0.000000 
0.000000 
0.000000 
0.000000 
0.000000 
0.000000 
0.000000 
0.000000 
0.000000 
0.000000 
0.000000 
0.000000 
0.000000 
0.000000 
0.000000 
0.000000 
0.000000 
0.000000 
0.000000 
0.000000 
0.000000 
0.000000 
0.000000 
0.000000 
0.000000 
0.000000 
0.000000 
0.000000 
0.000000 
0.000000 
0.000000 
0.000000 
0.000000 
0.000000 
0.000000 
0.000000 
0.000000 
0.000000 
0.000000 
0.000000 
0.000000 
0.000000 
0.000000 
0.000000 
0.000000 
0.000000 
0.000000 
0.000000 
0.000000 
0.000000 
0.000000 
0.000000 
0.000000 
0.000000 
0.000000 
0.000000 
0.000000 
0.000000 
0.000001 
0.000001 
0.000001 
0.000001 
0.000001 
0.000001 
0.000001 
0.000001 
0.000001 
0.000001 
0.000001 
0.000001 
0.000001 
0.000001 
0.000002 
0.000002 
0.000002 
0.000002 
0.000002 
0.000002 
0.000002 
0.000003 
0.000003 
0.000003 
0.000003 
0.000003 
0.000004 
0.000004 
0.000004 
0.000004 
0.000005 
0.000005 
0.000005 
0.000006 
0.000006 
0.000007 
0.000007 
0.000008 
0.000008 
0.000009 
0.000009 
0.000010 
0.000011 
0.000011 
0.000012 
0.000013 
0.000014 
0.000015 
0.000016 
0.000017 
0.000018 
0.000019 
0.000020 
0.000021 
0.000022 
0.000024 
0.000025 
0.000027 
0.000028 
0.000030 
0.000032 
0.000034 
0.000036 
0.000038 
0.000040 
0.000042 
0.000045 
0.000047 
0.000050 
0.000052 
0.000055 
0.000058 
0.000062 
0.000065 
0.000068 
0.000072 
0.000076 
0.000080 
0.000084 
0.000088 
0.000092 
0.000097 
0.000102 
0.000107 
0.000112 
0.000117 
0.000123 
0.000129 
0.000135 
0.000141 
0.000148 
0.000155 
0.000162 
0.000169 
0.000176 
0.000184 
0.000192 
0.000201 
0.000209 
0.000218 
0.000227 
0.000237 
0.000247 
0.000257 
0.000267 
0.000278 
0.000289 
0.000300 
0.000312 
0.000324 
0.000336 
0.000348 
0.000361 
0.000375 
0.000388 
0.000402 
0.000416 
0.000431 
0.000446 
0.000461 
0.000477 
0.000493 
0.000509 
0.000526 
0.000543 
0.000560 
0.000578 
0.000596 
0.000614 
0.000632 
0.000651 
0.000670 
0.000690 
0.000710 
0.000730 
0.000750 
0.000771 
0.000792 
0.000813 
0.000835 
0.000856 
0.000878 
0.000901 
0.000923 
0.000946 
0.000969 
0.000992 
0.001015 
0.001038 
0.001062 
0.001086 
0.001110 
0.001134 
0.001158 
0.001182 
0.001206 
0.001231 
0.001255 
0.001279 
0.001304 
0.001328 
0.001353 
0.001378 
0.001402 
0.001426 
0.001451 
0.001475 
0.001499 
0.001524 
0.001548 
0.001571 
0.001595 
0.001619 
0.001642 
0.001665 
0.001688 
0.001711 
0.001733 
0.001756 
0.001777 
0.001799 
0.001820 
0.001842 
0.001862 
0.001883 
0.001903 
0.001922 
0.001941 
0.001960 
0.001979 
0.001996 
0.002014 
0.002031 
0.002048 
0.002064 
0.002079 
0.002094 
0.002109 
0.002123 
0.002137 
0.002150 
0.002162 
0.002174 
0.002185 
0.002196 
0.002206 
0.002216 
0.002225 
0.002233 
0.002241 
0.002248 
0.002254 
0.002260 
0.002265 
0.002270 
0.002273 
0.002277 
0.002279 
0.002281 
0.002283 
0.002283 
0.000000 
0.000000 
0.000000 
0.000000 
0.000000 
0.000000 
0.000000 
0.000000 
0.000000 
0.000000 
0.000000 
0.000000 
0.000000 
0.000000 
0.000000 
0.000000 
0.000000 
0.000000 
0.000000 
0.000000 
0.000000 
0.000000 
0.000000 
0.000000 
0.000000 
0.000000 
0.000000 
0.000000 
0.000000 
0.000000 
0.000000 
0.000000 
0.000000 
0.000000 
0.000000 
0.000000 
0.000000 
0.000000 
0.000000 
0.000000 
0.000000 
0.000000 
0.000000 
0.000000 
0.000000 
0.000000 
0.000000 
0.000000 
0.000000 
0.000000 
0.000000 
0.000000 
0.000000 
0.000000 
0.000000 
0.000000 
0.000000 
0.000000 
0.000000 
0.000000 
0.000000 
0.000000 
0.000000 
0.000000 
0.000000 
0.000000 
0.000000 
0.000000 
0.000000 
0.000000 
0.000000 
0.000000 
0.000000 
0.000000 
0.000000 
0.000000 
0.000000 
0.000000 
0.000001 
0.000001 
0.000001 
0.000001 
0.000001 
0.000001 
0.000001 
0.000001 
0.000001 
0.000001 
0.000001 
0.000001 
0.000001 
0.000001 
0.000002 
0.000002 
0.000002 
0.000002 
0.000002 
0.000002 
0.000002 
0.000003 
0.000003 
0.000003 
0.000003 
0.000004 
0.000004 
0.000004 
0.000004 
0.000005 
0.000005 
0.000005 
0.000006 
0.000006 
0.000007 
0.000007 
0.000008 
0.000008 
0.000009 
0.000009 
0.000010 
0.000011 
0.000011 
0.000012 
0.000013 
0.000014 
0.000015 
0.000016 
0.000017 
0.000018 
0.000019 
0.000020 
0.000022 
0.000023 
0.000024 
0.000026 
0.000027 
0.000029 
0.000031 
0.000033 
0.000035 
0.000037 
0.000039 
0.000041 
0.000044 
0.000046 
0.000049 
0.000052 
0.000055 
0.000058 
0.000061 
0.000064 
0.000068 
0.000071 
0.000075 
0.000079 
0.000083 
0.000088 
0.000092 
0.000097 
0.000102 
0.000107 
0.000113 
0.000118 
0.000124 
0.000130 
0.000137 
0.000143 
0.000150 
0.000157 
0.000165 
0.000173 
0.000181 
0.000189 
0.000197 
0.000206 
0.000215 
0.000225 
0.000235 
0.000245 
0.000255 
0.000266 
0.000277 
0.000289 
0.000301 
0.000313 
0.000326 
0.000339 
0.000352 
0.000366 
0.000380 
0.000395 
0.000410 
0.000425 
0.000441 
0.000457 
0.000473 
0.000490 
0.000508 
0.000525 
0.000544 
0.000562 
0.000581 
0.000601 
0.000620 
0.000641 
0.000661 
0.000682 
0.000704 
0.000725 
0.000748 
0.000770 
0.000793 
0.000816 
0.000840 
0.000864 
0.000889 
0.000913 
0.000938 
0.000964 
0.000990 
0.001016 
0.001042 
0.001069 
0.001096 
0.001123 
0.001150 
0.001178 
0.001206 
0.001234 
0.001263 
0.001291 
0.001320 
0.001349 
0.001378 
0.001407 
0.001436 
0.001466 
0.001495 
0.001525 
0.001555 
0.001584 
0.001614 
0.001644 
0.001673 
0.001703 
0.001732 
0.001762 
0.001791 
0.001821 
0.001850 
0.001879 
0.001908 
0.001936 
0.001965 
0.001993 
0.002021 
0.002049 
0.002076 
0.002103 
0.002130 
0.002157 
0.002183 
0.002209 
0.002234 
0.002259 
0.002284 
0.002308 
0.002331 
0.002354 
0.002377 
0.002399 
0.002421 
0.002442 
0.002463 
0.002483 
0.002502 
0.002521 
0.002539 
0.002557 
0.002574 
0.002590 
0.002606 
0.002621 
0.002635 
0.002649 
0.002662 
0.002674 
0.002685 
0.002696 
0.002706 
0.002715 
0.002724 
0.002732 
0.002739 
0.002745 
0.002750 
0.002755 
0.002759 
0.002762 
0.002764 
0.002766 
0.002767 
0.000000 
0.000000 
0.000000 
0.000000 
0.000000 
0.000000 
0.000000 
0.000000 
0.000000 
0.000000 
0.000000 
0.000000 
0.000000 
0.000000 
0.000000 
0.000000 
0.000000 
0.000000 
0.000000 
0.000000 
0.000000 
0.000000 
0.000000 
0.000000 
0.000000 
0.000000 
0.000000 
0.000000 
0.000000 
0.000000 
0.000000 
0.000000 
0.000000 
0.000000 
0.000000 
0.000000 
0.000000 
0.000000 
0.000000 
0.000000 
0.000000 
0.000000 
0.000000 
0.000000 
0.000000 
0.000000 
0.000000 
0.000000 
0.000000 
0.000000 
0.000000 
0.000000 
0.000000 
0.000000 
0.000000 
0.000000 
0.000000 
0.000000 
0.000000 
0.000000 
0.000000 
0.000000 
0.000000 
0.000000 
0.000000 
0.000000 
0.000000 
0.000000 
0.000000 
0.000000 
0.000000 
0.000000 
0.000000 
0.000000 
0.000000 
0.000000 
0.000001 
0.000001 
0.000001 
0.000001 
0.000001 
0.000001 
0.000001 
0.000001 
0.000001 
0.000001 
0.000001 
0.000001 
0.000001 
0.000002 
0.000002 
0.000002 
0.000002 
0.000002 
0.000002 
0.000002 
0.000003 
0.000003 
0.000003 
0.000003 
0.000003 
0.000004 
0.000004 
0.000004 
0.000005 
0.000005 
0.000005 
0.000006 
0.000006 
0.000007 
0.000007 
0.000007 
0.000008 
0.000009 
0.000009 
0.000010 
0.000011 
0.000011 
0.000012 
0.000013 
0.000014 
0.000015 
0.000016 
0.000017 
0.000018 
0.000019 
0.000020 
0.000021 
0.000023 
0.000024 
0.000026 
0.000027 
0.000029 
0.000031 
0.000033 
0.000035 
0.000037 
0.000039 
0.000041 
0.000044 
0.000047 
0.000049 
0.000052 
0.000055 
0.000058 
0.000062 
0.000065 
0.000069 
0.000073 
0.000077 
0.000081 
0.000085 
0.000090 
0.000094 
0.000099 
0.000105 
0.000110 
0.000116 
0.000122 
0.000128 
0.000134 
0.000141 
0.000148 
0.000155 
0.000163 
0.000171 
0.000179 
0.000188 
0.000196 
0.000205 
0.000215 
0.000225 
0.000235 
0.000246 
0.000256 
0.000268 
0.000279 
0.000292 
0.000304 
0.000317 
0.000330 
0.000344 
0.000358 
0.000373 
0.000388 
0.000403 
0.000419 
0.000435 
0.000452 
0.000469 
0.000487 
0.000505 
0.000524 
0.000543 
0.000563 
0.000583 
0.000603 
0.000624 
0.000646 
0.000668 
0.000690 
0.000713 
0.000737 
0.000761 
0.000785 
0.000810 
0.000835 
0.000861 
0.000887 
0.000914 
0.000941 
0.000969 
0.000997 
0.001025 
0.001054 
0.001084 
0.001113 
0.001143 
0.001174 
0.001204 
0.001236 
0.001267 
0.001299 
0.001331 
0.001364 
0.001396 
0.001429 
0.001463 
0.001496 
0.001530 
0.001564 
0.001598 
0.001632 
0.001667 
0.001701 
0.001736 
0.001771 
0.001805 
0.001840 
0.001875 
0.001910 
0.001945 
0.001980 
0.002015 
0.002050 
0.002085 
0.002119 
0.002154 
0.002188 
0.002222 
0.002256 
0.002290 
0.002323 
0.002356 
0.002389 
0.002422 
0.002454 
0.002486 
0.002518 
0.002549 
0.002580 
0.002610 
0.002640 
0.002669 
0.002698 
0.002726 
0.002754 
0.002781 
0.002808 
0.002834 
0.002859 
0.002884 
0.002908 
0.002932 
0.002955 
0.002977 
0.002998 
0.003019 
0.003039 
0.003058 
0.003076 
0.003094 
0.003111 
0.003127 
0.003142 
0.003156 
0.003169 
0.003182 
0.003194 
0.003205 
0.003215 
0.003224 
0.003232 
0.003239 
0.003246 
0.003251 
0.003256 
0.003260 
0.003262 
0.003264 
0.003265 
0.000000 
0.000000 
0.000000 
0.000000 
0.000000 
0.000000 
0.000000 
0.000000 
0.000000 
0.000000 
0.000000 
0.000000 
0.000000 
0.000000 
0.000000 
0.000000 
0.000000 
0.000000 
0.000000 
0.000000 
0.000000 
0.000000 
0.000000 
0.000000 
0.000000 
0.000000 
0.000000 
0.000000 
0.000000 
0.000000 
0.000000 
0.000000 
0.000000 
0.000000 
0.000000 
0.000000 
0.000000 
0.000000 
0.000000 
0.000000 
0.000000 
0.000000 
0.000000 
0.000000 
0.000000 
0.000000 
0.000000 
0.000000 
0.000000 
0.000000 
0.000000 
0.000000 
0.000000 
0.000000 
0.000000 
0.000000 
0.000000 
0.000000 
0.000000 
0.000000 
0.000000 
0.000000 
0.000000 
0.000000 
0.000000 
0.000000 
0.000000 
0.000000 
0.000000 
0.000000 
0.000000 
0.000000 
0.000000 
0.000000 
0.000001 
0.000001 
0.000001 
0.000001 
0.000001 
0.000001 
0.000001 
0.000001 
0.000001 
0.000001 
0.000001 
0.000001 
0.000001 
0.000002 
0.000002 
0.000002 
0.000002 
0.000002 
0.000002 
0.000002 
0.000003 
0.000003 
0.000003 
0.000003 
0.000003 
0.000004 
0.000004 
0.000004 
0.000005 
0.000005 
0.000005 
0.000006 
0.000006 
0.000007 
0.000007 
0.000008 
0.000008 
0.000009 
0.000009 
0.000010 
0.000011 
0.000012 
0.000012 
0.000013 
0.000014 
0.000015 
0.000016 
0.000017 
0.000018 
0.000019 
0.000021 
0.000022 
0.000024 
0.000025 
0.000027 
0.000028 
0.000030 
0.000032 
0.000034 
0.000036 
0.000038 
0.000041 
0.000043 
0.000046 
0.000049 
0.000051 
0.000055 
0.000058 
0.000061 
0.000065 
0.000068 
0.000072 
0.000076 
0.000080 
0.000085 
0.000090 
0.000095 
0.000100 
0.000105 
0.000111 
0.000116 
0.000123 
0.000129 
0.000136 
0.000143 
0.000150 
0.000157 
0.000165 
0.000173 
0.000182 
0.000191 
0.000200 
0.000210 
0.000219 
0.000230 
0.000240 
0.000251 
0.000263 
0.000275 
0.000287 
0.000300 
0.000313 
0.000327 
0.000341 
0.000355 
0.000370 
0.000386 
0.000402 
0.000418 
0.000435 
0.000453 
0.000471 
0.000489 
0.000508 
0.000528 
0.000548 
0.000569 
0.000590 
0.000612 
0.000634 
0.000657 
0.000680 
0.000704 
0.000729 
0.000754 
0.000779 
0.000805 
0.000832 
0.000859 
0.000887 
0.000916 
0.000945 
0.000974 
0.001004 
0.001034 
0.001065 
0.001097 
0.001129 
0.001162 
0.001195 
0.001228 
0.001262 
0.001296 
0.001331 
0.001367 
0.001402 
0.001438 
0.001475 
0.001512 
0.001549 
0.001587 
0.001625 
0.001663 
0.001701 
0.001740 
0.001779 
0.001818 
0.001858 
0.001898 
0.001937 
0.001977 
0.002017 
0.002058 
0.002098 
0.002138 
0.002179 
0.002219 
0.002260 
0.002300 
0.002340 
0.002380 
0.002420 
0.002460 
0.002500 
0.002540 
0.002579 
0.002618 
0.002657 
0.002696 
0.002734 
0.002772 
0.002810 
0.002847 
0.002884 
0.002920 
0.002956 
0.002991 
0.003026 
0.003061 
0.003095 
0.003128 
0.003160 
0.003192 
0.003224 
0.003254 
0.003284 
0.003314 
0.003342 
0.003370 
0.003397 
0.003423 
0.003449 
0.003473 
0.003497 
0.003520 
0.003542 
0.003563 
0.003583 
0.003603 
0.003621 
0.003639 
0.003655 
0.003671 
0.003685 
0.003699 
0.003711 
0.003723 
0.003733 
0.003743 
0.003751 
0.003758 
0.003765 
0.003770 
0.003774 
0.003777 
0.003779 
0.003781 
0.000000 
0.000000 
0.000000 
0.000000 
0.000000 
0.000000 
0.000000 
0.000000 
0.000000 
0.000000 
0.000000 
0.000000 
0.000000 
0.000000 
0.000000 
0.000000 
0.000000 
0.000000 
0.000000 
0.000000 
0.000000 
0.000000 
0.000000 
0.000000 
0.000000 
0.000000 