# vtk DataFile Version 3.0
results.vtk
ASCII
DATASET RECTILINEAR_GRID
DIMENSIONS 301 301 1
X_COORDINATES 301 double
0.000000 0.003333 0.006667 0.010000 0.013333 0.016667 0.020000 0.023333 0.026667 0.030000 0.033333 0.036667 0.040000 0.043333 0.046667 0.050000 0.053333 0.056667 0.060000 0.063333 0.066667 0.070000 0.073333 0.076667 0.080000 0.083333 0.086667 0.090000 0.093333 0.096667 0.100000 0.103333 0.106667 0.110000 0.113333 0.116667 0.120000 0.123333 0.126667 0.130000 0.133333 0.136667 0.140000 0.143333 0.146667 0.150000 0.153333 0.156667 0.160000 0.163333 0.166667 0.170000 0.173333 0.176667 0.180000 0.183333 0.186667 0.190000 0.193333 0.196667 0.200000 0.203333 0.206667 0.210000 0.213333 0.216667 0.220000 0.223333 0.226667 0.230000 0.233333 0.236667 0.240000 0.243333 0.246667 0.250000 0.253333 0.256667 0.260000 0.263333 0.266667 0.270000 0.273333 0.276667 0.280000 0.283333 0.286667 0.290000 0.293333 0.296667 0.300000 0.303333 0.306667 0.310000 0.313333 0.316667 0.320000 0.323333 0.326667 0.330000 0.333333 0.336667 0.340000 0.343333 0.346667 0.350000 0.353333 0.356667 0.360000 0.363333 0.366667 0.370000 0.373333 0.376667 0.380000 0.383333 0.386667 0.390000 0.393333 0.396667 0.400000 0.403333 0.406667 0.410000 0.413333 0.416667 0.420000 0.423333 0.426667 0.430000 0.433333 0.436667 0.440000 0.443333 0.446667 0.450000 0.453333 0.456667 0.460000 0.463333 0.466667 0.470000 0.473333 0.476667 0.480000 0.483333 0.486667 0.490000 0.493333 0.496667 0.500000 0.503333 0.506667 0.510000 0.513333 0.516667 0.520000 0.523333 0.526667 0.530000 0.533333 0.536667 0.540000 0.543333 0.546667 0.550000 0.553333 0.556667 0.560000 0.563333 0.566667 0.570000 0.573333 0.576667 0.580000 0.583333 0.586667 0.590000 0.593333 0.596667 0.600000 0.603333 0.606667 0.610000 0.613333 0.616667 0.620000 0.623333 0.626667 0.630000 0.633333 0.636667 0.640000 0.643333 0.646667 0.650000 0.653333 0.656667 0.660000 0.663333 0.666667 0.670000 0.673333 0.676667 0.680000 0.683333 0.686667 0.690000 0.693333 0.696667 0.700000 0.703333 0.706667 0.710000 0.713333 0.716667 0.720000 0.723333 0.726667 0.730000 0.733333 0.736667 0.740000 0.743333 0.746667 0.750000 0.753333 0.756667 0.760000 0.763333 0.766667 0.770000 0.773333 0.776667 0.780000 0.783333 0.786667 0.790000 0.793333 0.796667 0.800000 0.803333 0.806667 0.810000 0.813333 0.816667 0.820000 0.823333 0.826667 0.830000 0.833333 0.836667 0.840000 0.843333 0.846667 0.850000 0.853333 0.856667 0.860000 0.863333 0.866667 0.870000 0.873333 0.876667 0.880000 0.883333 0.886667 0.890000 0.893333 0.896667 0.900000 0.903333 0.906667 0.910000 0.913333 0.916667 0.920000 0.923333 0.926667 0.930000 0.933333 0.936667 0.940000 0.943333 0.946667 0.950000 0.953333 0.956667 0.960000 0.963333 0.966667 0.970000 0.973333 0.976667 0.980000 0.983333 0.986667 0.990000 0.993333 0.996667 1.000000 
Y_COORDINATES 301 double
0.000000 0.003333 0.006667 0.010000 0.013333 0.016667 0.020000 0.023333 0.026667 0.030000 0.033333 0.036667 0.040000 0.043333 0.046667 0.050000 0.053333 0.056667 0.060000 0.063333 0.066667 0.070000 0.073333 0.076667 0.080000 0.083333 0.086667 0.090000 0.093333 0.096667 0.100000 0.103333 0.106667 0.110000 0.113333 0.116667 0.120000 0.123333 0.126667 0.130000 0.133333 0.136667 0.140000 0.143333 0.146667 0.150000 0.153333 0.156667 0.160000 0.163333 0.166667 0.170000 0.173333 0.176667 0.180000 0.183333 0.186667 0.190000 0.193333 0.196667 0.200000 0.203333 0.206667 0.210000 0.213333 0.216667 0.220000 0.223333 0.226667 0.230000 0.233333 0.236667 0.240000 0.243333 0.246667 0.250000 0.253333 0.256667 0.260000 0.263333 0.266667 0.270000 0.273333 0.276667 0.280000 0.283333 0.286667 0.290000 0.293333 0.296667 0.300000 0.303333 0.306667 0.310000 0.313333 0.316667 0.320000 0.323333 0.326667 0.330000 0.333333 0.336667 0.340000 0.343333 0.346667 0.350000 0.353333 0.356667 0.360000 0.363333 0.366667 0.370000 0.373333 0.376667 0.380000 0.383333 0.386667 0.390000 0.393333 0.396667 0.400000 0.403333 0.406667 0.410000 0.413333 0.416667 0.420000 0.423333 0.426667 0.430000 0.433333 0.436667 0.440000 0.443333 0.446667 0.450000 0.453333 0.456667 0.460000 0.463333 0.466667 0.470000 0.473333 0.476667 0.480000 0.483333 0.486667 0.490000 0.493333 0.496667 0.500000 0.503333 0.506667 0.510000 0.513333 0.516667 0.520000 0.523333 0.526667 0.530000 0.533333 0.536667 0.540000 0.543333 0.546667 0.550000 0.553333 0.556667 0.560000 0.563333 0.566667 0.570000 0.573333 0.576667 0.580000 0.583333 0.586667 0.590000 0.593333 0.596667 0.600000 0.603333 0.606667 0.610000 0.613333 0.616667 0.620000 0.623333 0.626667 0.630000 0.633333 0.636667 0.640000 0.643333 0.646667 0.650000 0.653333 0.656667 0.660000 0.663333 0.666667 0.670000 0.673333 0.676667 0.680000 0.683333 0.686667 0.690000 0.693333 0.696667 0.700000 0.703333 0.706667 0.710000 0.713333 0.716667 0.720000 0.723333 0.726667 0.730000 0.733333 0.736667 0.740000 0.743333 0.746667 0.750000 0.753333 0.756667 0.760000 0.763333 0.766667 0.770000 0.773333 0.776667 0.780000 0.783333 0.786667 0.790000 0.793333 0.796667 0.800000 0.803333 0.806667 0.810000 0.813333 0.816667 0.820000 0.823333 0.826667 0.830000 0.833333 0.836667 0.840000 0.843333 0.846667 0.850000 0.853333 0.856667 0.860000 0.863333 0.866667 0.870000 0.873333 0.876667 0.880000 0.883333 0.886667 0.890000 0.893333 0.896667 0.900000 0.903333 0.906667 0.910000 0.913333 0.916667 0.920000 0.923333 0.926667 0.930000 0.933333 0.936667 0.940000 0.943333 0.946667 0.950000 0.953333 0.956667 0.960000 0.963333 0.966667 0.970000 0.973333 0.976667 0.980000 0.983333 0.986667 0.990000 0.993333 0.996667 1.000000 
Z_COORDINATES 1 double
0
POINT_DATA 90601 
FIELD FieldData 1 
Concentração 1 90601 double 
0.000000 
0.000000 
0.000000 
0.000000 
0.000000 
0.000000 
0.000000 
0.000000 
0.000000 
0.000000 
0.000000 
0.000000 
0.000000 
0.000000 
0.000000 
0.000000 
0.000000 
0.000000 
0.000000 
0.000000 
0.000000 
0.000000 
0.000000 
0.000000 
0.000000 
0.000000 
0.000000 
0.000000 
0.000000 
0.000000 
0.000000 
0.000000 
0.000000 
0.000000 
0.000000 
0.000000 
0.000000 
0.000000 
0.000000 
0.000000 
0.000000 
0.000000 
0.000000 
0.000000 
0.000000 
0.000000 
0.000000 
0.000000 
0.000000 
0.000000 
0.000000 
0.000000 
0.000000 
0.000000 
0.000000 
0.000000 
0.000000 
0.000000 
0.000000 
0.000000 
0.000000 
0.000000 
0.000000 
0.000000 
0.000000 
0.000000 
0.000000 
0.000000 
0.000000 
0.000000 
0.000000 
0.000000 
0.000000 
0.000000 
0.000000 
0.000000 
0.000000 
0.000000 
0.000000 
0.000000 
0.000000 
0.000000 
0.000000 
0.000000 
0.000000 
0.000000 
0.000000 
0.000000 
0.000000 
0.000000 
0.000001 
0.000001 
0.000001 
0.000001 
0.000001 
0.000001 
0.000001 
0.000001 
0.000001 
0.000001 
0.000001 
0.000001 
0.000001 
0.000001 
0.000001 
0.000002 
0.000002 
0.000002 
0.000002 
0.000002 
0.000002 
0.000002 
0.000002 
0.000003 
0.000003 
0.000003 
0.000003 
0.000003 
0.000004 
0.000004 
0.000004 
0.000004 
0.000005 
0.000005 
0.000005 
0.000006 
0.000006 
0.000006 
0.000007 
0.000007 
0.000008 
0.000008 
0.000009 
0.000009 
0.000010 
0.000010 
0.000011 
0.000012 
0.000012 
0.000013 
0.000014 
0.000015 
0.000015 
0.000016 
0.000017 
0.000018 
0.000019 
0.000020 
0.000021 
0.000022 
0.000024 
0.000025 
0.000026 
0.000027 
0.000029 
0.000030 
0.000032 
0.000033 
0.000035 
0.000037 
0.000038 
0.000040 
0.000042 
0.000044 
0.000046 
0.000048 
0.000051 
0.000053 
0.000055 
0.000058 
0.000060 
0.000063 
0.000066 
0.000069 
0.000072 
0.000075 
0.000078 
0.000081 
0.000084 
0.000088 
0.000091 
0.000095 
0.000099 
0.000102 
0.000106 
0.000110 
0.000115 
0.000119 
0.000123 
0.000128 
0.000132 
0.000137 
0.000142 
0.000147 
0.000152 
0.000157 
0.000162 
0.000167 
0.000173 
0.000178 
0.000184 
0.000190 
0.000196 
0.000202 
0.000208 
0.000214 
0.000220 
0.000227 
0.000233 
0.000240 
0.000247 
0.000254 
0.000260 
0.000267 
0.000275 
0.000282 
0.000289 
0.000296 
0.000304 
0.000311 
0.000319 
0.000326 
0.000334 
0.000342 
0.000349 
0.000357 
0.000365 
0.000373 
0.000381 
0.000389 
0.000397 
0.000405 
0.000413 
0.000421 
0.000429 
0.000437 
0.000446 
0.000454 
0.000462 
0.000470 
0.000478 
0.000486 
0.000494 
0.000502 
0.000510 
0.000518 
0.000526 
0.000534 
0.000542 
0.000550 
0.000558 
0.000565 
0.000573 
0.000580 
0.000588 
0.000595 
0.000603 
0.000610 
0.000617 
0.000624 
0.000631 
0.000638 
0.000644 
0.000651 
0.000657 
0.000664 
0.000670 
0.000676 
0.000682 
0.000688 
0.000693 
0.000699 
0.000704 
0.000709 
0.000714 
0.000719 
0.000724 
0.000729 
0.000733 
0.000737 
0.000741 
0.000745 
0.000749 
0.000752 
0.000756 
0.000759 
0.000762 
0.000764 
0.000767 
0.000769 
0.000772 
0.000774 
0.000775 
0.000777 
0.000778 
0.000780 
0.000781 
0.000781 
0.000782 
0.000782 
0.000783 
0.000000 
0.000000 
0.000000 
0.000000 
0.000000 
0.000000 
0.000000 
0.000000 
0.000000 
0.000000 
0.000000 
0.000000 
0.000000 
0.000000 
0.000000 
0.000000 
0.000000 
0.000000 
0.000000 
0.000000 
0.000000 
0.000000 
0.000000 
0.000000 
0.000000 
0.000000 
0.000000 
0.000000 
0.000000 
0.000000 
0.000000 
0.000000 
0.000000 
0.000000 
0.000000 
0.000000 
0.000000 
0.000000 
0.000000 
0.000000 
0.000000 
0.000000 
0.000000 
0.000000 
0.000000 
0.000000 
0.000000 
0.000000 
0.000000 
0.000000 
0.000000 
0.000000 
0.000000 
0.000000 
0.000000 
0.000000 
0.000000 
0.000000 
0.000000 
0.000000 
0.000000 
0.000000 
0.000000 
0.000000 
0.000000 
0.000000 
0.000000 
0.000000 
0.000000 
0.000000 
0.000000 
0.000000 
0.000000 
0.000000 
0.000000 
0.000000 
0.000000 
0.000000 
0.000000 
0.000000 
0.000000 
0.000001 
0.000001 
0.000001 
0.000001 
0.000001 
0.000001 
0.000001 
0.000001 
0.000001 
0.000001 
0.000001 
0.000001 
0.000001 
0.000001 
0.000002 
0.000002 
0.000002 
0.000002 
0.000002 
0.000002 
0.000002 
0.000003 
0.000003 
0.000003 
0.000003 
0.000003 
0.000004 
0.000004 
0.000004 
0.000004 
0.000005 
0.000005 
0.000005 
0.000006 
0.000006 
0.000007 
0.000007 
0.000007 
0.000008 
0.000008 
0.000009 
0.000010 
0.000010 
0.000011 
0.000012 
0.000012 
0.000013 
0.000014 
0.000015 
0.000016 
0.000017 
0.000018 
0.000019 
0.000020 
0.000021 
0.000022 
0.000023 
0.000025 
0.000026 
0.000028 
0.000029 
0.000031 
0.000033 
0.000034 
0.000036 
0.000038 
0.000040 
0.000043 
0.000045 
0.000047 
0.000050 
0.000052 
0.000055 
0.000058 
0.000061 
0.000064 
0.000067 
0.000070 
0.000074 
0.000077 
0.000081 
0.000085 
0.000089 
0.000093 
0.000097 
0.000102 
0.000107 
0.000111 
0.000116 
0.000121 
0.000127 
0.000132 
0.000138 
0.000144 
0.000150 
0.000156 
0.000163 
0.000169 
0.000176 
0.000183 
0.000190 
0.000198 
0.000206 
0.000214 
0.000222 
0.000230 
0.000238 
0.000247 
0.000256 
0.000265 
0.000275 
0.000284 
0.000294 
0.000304 
0.000315 
0.000325 
0.000336 
0.000347 
0.000358 
0.000370 
0.000381 
0.000393 
0.000405 
0.000417 
0.000430 
0.000442 
0.000455 
0.000468 
0.000482 
0.000495 
0.000509 
0.000523 
0.000537 
0.000551 
0.000565 
0.000580 
0.000594 
0.000609 
0.000624 
0.000639 
0.000654 
0.000670 
0.000685 
0.000701 
0.000716 
0.000732 
0.000748 
0.000764 
0.000780 
0.000796 
0.000812 
0.000828 
0.000845 
0.000861 
0.000877 
0.000893 
0.000910 
0.000926 
0.000942 
0.000959 
0.000975 
0.000991 
0.001007 
0.001023 
0.001039 
0.001055 
0.001071 
0.001087 
0.001102 
0.001118 
0.001133 
0.001148 
0.001163 
0.001178 
0.001193 
0.001208 
0.001222 
0.001236 
0.001250 
0.001264 
0.001278 
0.001291 
0.001304 
0.001317 
0.001330 
0.001342 
0.001354 
0.001366 
0.001378 
0.001389 
0.001400 
0.001411 
0.001421 
0.001431 
0.001441 
0.001450 
0.001460 
0.001468 
0.001477 
0.001485 
0.001493 
0.001500 
0.001507 
0.001514 
0.001520 
0.001526 
0.001531 
0.001536 
0.001541 
0.001546 
0.001550 
0.001553 
0.001556 
0.001559 
0.001562 
0.001564 
0.001565 
0.001566 
0.001567 
0.001568 
0.000000 
0.000000 
0.000000 
0.000000 
0.000000 
0.000000 
0.000000 
0.000000 
0.000000 
0.000000 
0.000000 
0.000000 
0.000000 
0.000000 
0.000000 
0.000000 
0.000000 
0.000000 
0.000000 
0.000000 
0.000000 
0.000000 
0.000000 
0.000000 
0.000000 
0.000000 
0.000000 
0.000000 
0.000000 
0.000000 
0.000000 
0.000000 
0.000000 
0.000000 
0.000000 
0.000000 
0.000000 
0.000000 
0.000000 
0.000000 
0.000000 
0.000000 
0.000000 
0.000000 
0.000000 
0.000000 
0.000000 
0.000000 
0.000000 
0.000000 
0.000000 
0.000000 
0.000000 
0.000000 
0.000000 
0.000000 
0.000000 
0.000000 
0.000000 
0.000000 
0.000000 
0.000000 
0.000000 
0.000000 
0.000000 
0.000000 
0.000000 
0.000000 
0.000000 
0.000000 
0.000000 
0.000000 
0.000000 
0.000000 
0.000000 
0.000000 
0.000001 
0.000001 
0.000001 
0.000001 
0.000001 
0.000001 
0.000001 
0.000001 
0.000001 
0.000001 
0.000001 
0.000001 
0.000001 
0.000001 
0.000002 
0.000002 
0.000002 
0.000002 
0.000002 
0.000002 
0.000002 
0.000003 
0.000003 
0.000003 
0.000003 
0.000004 
0.000004 
0.000004 
0.000004 
0.000005 
0.000005 
0.000005 
0.000006 
0.000006 
0.000007 
0.000007 
0.000008 
0.000008 
0.000009 
0.000009 
0.000010 
0.000011 
0.000011 
0.000012 
0.000013 
0.000014 
0.000014 
0.000015 
0.000016 
0.000017 
0.000019 
0.000020 
0.000021 
0.000022 
0.000024 
0.000025 
0.000027 
0.000028 
0.000030 
0.000032 
0.000033 
0.000035 
0.000037 
0.000040 
0.000042 
0.000044 
0.000047 
0.000049 
0.000052 
0.000055 
0.000058 
0.000061 
0.000064 
0.000068 
0.000071 
0.000075 
0.000079 
0.000083 
0.000087 
0.000092 
0.000096 
0.000101 
0.000106 
0.000111 
0.000117 
0.000122 
0.000128 
0.000134 
0.000141 
0.000147 
0.000154 
0.000161 
0.000168 
0.000176 
0.000184 
0.000192 
0.000200 
0.000208 
0.000217 
0.000226 
0.000236 
0.000246 
0.000256 
0.000266 
0.000277 
0.000288 
0.000299 
0.000311 
0.000322 
0.000335 
0.000347 
0.000360 
0.000373 
0.000387 
0.000401 
0.000415 
0.000429 
0.000444 
0.000459 
0.000475 
0.000491 
0.000507 
0.000524 
0.000540 
0.000558 
0.000575 
0.000593 
0.000611 
0.000630 
0.000648 
0.000667 
0.000687 
0.000707 
0.000727 
0.000747 
0.000767 
0.000788 
0.000809 
0.000831 
0.000852 
0.000874 
0.000896 
0.000918 
0.000941 
0.000963 
0.000986 
0.001009 
0.001033 
0.001056 
0.001080 
0.001103 
0.001127 
0.001151 
0.001175 
0.001200 
0.001224 
0.001248 
0.001273 
0.001297 
0.001321 
0.001346 
0.001370 
0.001395 
0.001419 
0.001444 
0.001468 
0.001492 
0.001517 
0.001541 
0.001565 
0.001589 
0.001612 
0.001636 
0.001659 
0.001683 
0.001706 
0.001729 
0.001751 
0.001774 
0.001796 
0.001818 
0.001839 
0.001861 
0.001882 
0.001902 
0.001923 
0.001943 
0.001963 
0.001982 
0.002001 
0.002019 
0.002038 
0.002055 
0.002073 
0.002090 
0.002106 
0.002122 
0.002138 
0.002153 
0.002168 
0.002182 
0.002195 
0.002209 
0.002221 
0.002233 
0.002245 
0.002256 
0.002267 
0.002277 
0.002286 
0.002295 
0.002303 
0.002311 
0.002318 
0.002324 
0.002330 
0.002336 
0.002341 
0.002345 
0.002348 
0.002351 
0.002354 
0.002356 
0.002357 
0.002357 
0.000000 
0.000000 
0.000000 
0.000000 
0.000000 
0.000000 
0.000000 
0.000000 
0.000000 
0.000000 
0.000000 
0.000000 
0.000000 
0.000000 
0.000000 
0.000000 
0.000000 
0.000000 
0.000000 
0.000000 
0.000000 
0.000000 
0.000000 
0.000000 
0.000000 
0.000000 
0.000000 
0.000000 
0.000000 
0.000000 
0.000000 
0.000000 
0.000000 
0.000000 
0.000000 
0.000000 
0.000000 
0.000000 
0.000000 
0.000000 
0.000000 
0.000000 
0.000000 
0.000000 
0.000000 
0.000000 
0.000000 
0.000000 
0.000000 
0.000000 
0.000000 
0.000000 
0.000000 
0.000000 
0.000000 
0.000000 
0.000000 
0.000000 
0.000000 
0.000000 
0.000000 
0.000000 
0.000000 
0.000000 
0.000000 
0.000000 
0.000000 
0.000000 
0.000000 
0.000000 
0.000000 
0.000000 
0.000001 
0.000001 
0.000001 
0.000001 
0.000001 
0.000001 
0.000001 
0.000001 
0.000001 
0.000001 
0.000001 
0.000001 
0.000001 
0.000001 
0.000002 
0.000002 
0.000002 
0.000002 
0.000002 
0.000002 
0.000003 
0.000003 
0.000003 
0.000003 
0.000003 
0.000004 
0.000004 
0.000004 
0.000004 
0.000005 
0.000005 
0.000006 
0.000006 
0.000006 
0.000007 
0.000007 
0.000008 
0.000008 
0.000009 
0.000010 
0.000010 
0.000011 
0.000012 
0.000012 
0.000013 
0.000014 
0.000015 
0.000016 
0.000017 
0.000018 
0.000020 
0.000021 
0.000022 
0.000024 
0.000025 
0.000027 
0.000028 
0.000030 
0.000032 
0.000034 
0.000036 
0.000038 
0.000040 
0.000043 
0.000045 
0.000048 
0.000051 
0.000053 
0.000056 
0.000060 
0.000063 
0.000067 
0.000070 
0.000074 
0.000078 
0.000082 
0.000087 
0.000091 
0.000096 
0.000101 
0.000107 
0.000112 
0.000118 
0.000124 
0.000130 
0.000136 
0.000143 
0.000150 
0.000157 
0.000165 
0.000173 
0.000181 
0.000190 
0.000198 
0.000207 
0.000217 
0.000227 
0.000237 
0.000247 
0.000258 
0.000269 
0.000281 
0.000293 
0.000305 
0.000318 
0.000331 
0.000344 
0.000358 
0.000372 
0.000387 
0.000402 
0.000418 
0.000434 
0.000450 
0.000467 
0.000484 
0.000502 
0.000520 
0.000539 
0.000558 
0.000578 
0.000598 
0.000618 
0.000639 
0.000660 
0.000682 
0.000704 
0.000727 
0.000750 
0.000773 
0.000797 
0.000821 
0.000846 
0.000871 
0.000897 
0.000923 
0.000949 
0.000976 
0.001003 
0.001031 
0.001059 
0.001087 
0.001116 
0.001144 
0.001174 
0.001203 
0.001233 
0.001263 
0.001294 
0.001324 
0.001355 
0.001386 
0.001418 
0.001449 
0.001481 
0.001513 
0.001545 
0.001577 
0.001609 
0.001642 
0.001674 
0.001707 
0.001740 
0.001772 
0.001805 
0.001838 
0.001871 
0.001903 
0.001936 
0.001968 
0.002001 
0.002033 
0.002065 
0.002097 
0.002129 
0.002161 
0.002193 
0.002224 
0.002255 
0.002286 
0.002316 
0.002346 
0.002376 
0.002406 
0.002435 
0.002464 
0.002492 
0.002521 
0.002548 
0.002575 
0.002602 
0.002628 
0.002654 
0.002680 
0.002704 
0.002729 
0.002752 
0.002776 
0.002798 
0.002820 
0.002842 
0.002862 
0.002882 
0.002902 
0.002921 
0.002939 
0.002957 
0.002973 
0.002990 
0.003005 
0.003020 
0.003034 
0.003047 
0.003060 
0.003071 
0.003082 
0.003093 
0.003102 
0.003111 
0.003119 
0.003126 
0.003132 
0.003138 
0.003143 
0.003147 
0.003150 
0.003152 
0.003154 
0.003155 
0.000000 
0.000000 
0.000000 
0.000000 
0.000000 
0.000000 
0.000000 
0.000000 
0.000000 
0.000000 
0.000000 
0.000000 
0.000000 
0.000000 
0.000000 
0.000000 
0.000000 
0.000000 
0.000000 
0.000000 
0.000000 
0.000000 
0.000000 
0.000000 
0.000000 
0.000000 
0.000000 
0.000000 
0.000000 
0.000000 
0.000000 
0.000000 
0.000000 
0.000000 
0.000000 
0.000000 
0.000000 
0.000000 
0.000000 
0.000000 
0.000000 
0.000000 
0.000000 
0.000000 
0.000000 
0.000000 
0.000000 
0.000000 
0.000000 
0.000000 
0.000000 
0.000000 
0.000000 
0.000000 
0.000000 
0.000000 
0.000000 
0.000000 
0.000000 
0.000000 
0.000000 
0.000000 
0.000000 
0.000000 
0.000000 
0.000000 
0.000000 
0.000000 
0.000000 
0.000001 
0.000001 
0.000001 
0.000001 
0.000001 
0.000001 
0.000001 
0.000001 
0.000001 
0.000001 
0.000001 
0.000001 
0.000001 
0.000001 
0.000002 
0.000002 
0.000002 
0.000002 
0.000002 
0.000002 
0.000003 
0.000003 
0.000003 
0.000003 
0.000003 
0.000004 
0.000004 
0.000004 
0.000005 
0.000005 
0.000005 
0.000006 
0.000006 
0.000007 
0.000007 
0.000008 
0.000008 
0.000009 
0.000009 
0.000010 
0.000011 
0.000011 
0.000012 
0.000013 
0.000014 
0.000015 
0.000016 
0.000017 
0.000018 
0.000019 
0.000021 
0.000022 
0.000023 
0.000025 
0.000026 
0.000028 
0.000030 
0.000032 
0.000034 
0.000036 
0.000038 
0.000040 
0.000043 
0.000045 
0.000048 
0.000051 
0.000054 
0.000057 
0.000061 
0.000064 
0.000068 
0.000072 
0.000076 
0.000080 
0.000084 
0.000089 
0.000094 
0.000099 
0.000104 
0.000110 
0.000116 
0.000122 
0.000128 
0.000135 
0.000142 
0.000149 
0.000157 
0.000165 
0.000173 
0.000181 
0.000190 
0.000199 
0.000209 
0.000219 
0.000229 
0.000240 
0.000251 
0.000263 
0.000275 
0.000287 
0.000300 
0.000313 
0.000327 
0.000341 
0.000355 
0.000370 
0.000386 
0.000402 
0.000419 
0.000436 
0.000453 
0.000471 
0.000490 
0.000509 
0.000529 
0.000549 
0.000570 
0.000591 
0.000613 
0.000635 
0.000658 
0.000682 
0.000706 
0.000730 
0.000755 
0.000781 
0.000807 
0.000834 
0.000862 
0.000890 
0.000918 
0.000947 
0.000977 
0.001007 
0.001038 
0.001069 
0.001100 
0.001133 
0.001165 
0.001199 
0.001232 
0.001266 
0.001301 
0.001336 
0.001372 
0.001408 
0.001444 
0.001481 
0.001518 
0.001555 
0.001593 
0.001631 
0.001670 
0.001709 
0.001748 
0.001787 
0.001827 
0.001867 
0.001907 
0.001947 
0.001987 
0.002028 
0.002069 
0.002110 
0.002151 
0.002191 
0.002232 
0.002274 
0.002315 
0.002356 
0.002397 
0.002437 
0.002478 
0.002519 
0.002559 
0.002600 
0.002640 
0.002680 
0.002720 
0.002759 
0.002798 
0.002837 
0.002876 
0.002914 
0.002952 
0.002989 
0.003026 
0.003063 
0.003099 
0.003134 
0.003170 
0.003204 
0.003238 
0.003272 
0.003305 
0.003337 
0.003368 
0.003399 
0.003430 
0.003459 
0.003488 
0.003517 
0.003544 
0.003571 
0.003597 
0.003622 
0.003646 
0.003670 
0.003693 
0.003715 
0.003736 
0.003756 
0.003775 
0.003794 
0.003811 
0.003828 
0.003843 
0.003858 
0.003872 
0.003885 
0.003896 
0.003907 
0.003917 
0.003926 
0.003934 
0.003941 
0.003947 
0.003952 
0.003956 
0.003959 
0.003961 
0.003962 
0.000000 
0.000000 
0.000000 
0.000000 
0.000000 
0.000000 
0.000000 
0.000000 
0.000000 
0.000000 
0.000000 
0.000000 
0.000000 
0.000000 
0.000000 
0.000000 
0.000000 
0.000000 
0.000000 
0.000000 
0.000000 
0.000000 
0.000000 
0.000000 
0.000000 
0.000000 
0.000000 
0.000000 
0.000000 
0.000000 
0.000000 
0.000000 
0.000000 
0.000000 
0.000000 
0.000000 
0.000000 
0.000000 
0.000000 
0.000000 
0.000000 
0.000000 
0.000000 
0.000000 
0.000000 
0.000000 
0.000000 
0.000000 
0.000000 
0.000000 
0.000000 
0.000000 
0.000000 
0.000000 
0.000000 
0.000000 
0.000000 
0.000000 
0.000000 
0.000000 
0.000000 
0.000000 
0.000000 
0.000000 
0.000000 
0.000000 
0.000000 
0.000001 
0.000001 
0.000001 
0.000001 
0.000001 
0.000001 
0.000001 
0.000001 
0.000001 
0.000001 
0.000001 
0.000001 
0.000001 
0.000002 
0.000002 
0.000002 
0.000002 
0.000002 
0.000002 
0.000002 
0.000003 
0.000003 
0.000003 
0.000003 
0.000004 
0.000004 
0.000004 
0.000005 
0.000005 
0.000005 
0.000006 
0.000006 
0.000006 
0.000007 
0.000007 
0.000008 
0.000009 
0.000009 
0.000010 
0.000011 
0.000011 
0.000012 
0.000013 
0.000014 
0.000015 
0.000016 
0.000017 
0.000018 
0.000019 
0.000021 
0.000022 
0.000024 
0.000025 
0.000027 
0.000028 
0.000030 
0.000032 
0.000034 
0.000036 
0.000039 
0.000041 
0.000044 
0.000046 
0.000049 
0.000052 
0.000056 
0.000059 
0.000062 
0.000066 
0.000070 
0.000074 
0.000078 
0.000083 
0.000088 
0.000092 
0.000098 
0.000103 
0.000109 
0.000115 
0.000121 
0.000128 
0.000134 
0.000141 
0.000149 
0.000157 
0.000165 
0.000173 
0.000182 
0.000191 
0.000201 
0.000211 
0.000221 
0.000232 
0.000243 
0.000255 
0.000267 
0.000280 
0.000293 
0.000306 
0.000320 
0.000335 
0.000350 
0.000365 
0.000381 
0.000398 
0.000415 
0.000433 
0.000451 
0.000470 
0.000490 
0.000510 
0.000531 
0.000552 
0.000574 
0.000597 
0.000620 
0.000644 
0.000668 
0.000693 
0.000719 
0.000746 
0.000773 
0.000801 
0.000829 
0.000858 
0.000888 
0.000919 
0.000950 
0.000982 
0.001014 
0.001048 
0.001082 
0.001116 
0.001151 
0.001187 
0.001224 
0.001261 
0.001299 
0.001337 
0.001376 
0.001415 
0.001456 
0.001496 
0.001538 
0.001580 
0.001622 
0.001665 
0.001708 
0.001752 
0.001797 
0.001842 
0.001887 
0.001933 
0.001979 
0.002025 
0.002072 
0.002119 
0.002167 
0.002215 
0.002263 
0.002311 
0.002360 
0.002409 
0.002458 
0.002507 
0.002556 
0.002605 
0.002655 
0.002704 
0.002753 
0.002803 
0.002852 
0.002902 
0.002951 
0.003000 
0.003049 
0.003098 
0.003146 
0.003195 
0.003243 
0.003290 
0.003338 
0.003385 
0.003432 
0.003478 
0.003524 
0.003570 
0.003614 
0.003659 
0.003703 
0.003746 
0.003789 
0.003831 
0.003873 
0.003914 
0.003954 
0.003993 
0.004032 
0.004070 
0.004107 
0.004144 
0.004179 
0.004214 
0.004248 
0.004281 
0.004313 
0.004344 
0.004374 
0.004404 
0.004432 
0.004459 
0.004485 
0.004511 
0.004535 
0.004558 
0.004580 
0.004601 
0.004621 
0.004640 
0.004657 
0.004674 
0.004689 
0.004703 
0.004717 
0.004728 
0.004739 
0.004749 
0.004757 
0.004764 
0.004770 
0.004775 
0.004779 
0.004781 
0.004782 
0.000000 
0.000000 
0.000000 
0.000000 
0.000000 
0.000000 
0.000000 
0.000000 
0.000000 
0.000000 
0.000000 
0.000000 
0.000000 
0.000000 
0.000000 
0.000000 
0.000000 
0.000000 
0.000000 
0.000000 
0.000000 
0.000000 
0.000000 
0.000000 
0.000000 
0.000000 
0.000000 
0.000000 
0.000000 
0.000000 
0.000000 
0.000000 
0.000000 
0.000000 
0.000000 
0.000000 
0.000000 
0.000000 
0.000000 
0.000000 
0.000000 
0.000000 
0.000000 
0.000000 
0.000000 
0.000000 
0.000000 
0.000000 
0.000000 
0.000000 
0.000000 
0.000000 
0.000000 
0.000000 
0.000000 
0.000000 
0.000000 
0.000000 
0.000000 
0.000000 
0.000000 
0.000000 
0.000000 
0.000000 
0.000000 
0.000001 
0.000001 
0.000001 
0.000001 
0.000001 
0.000001 
0.000001 
0.000001 
0.000001 
0.000001 
0.000001 
0.000001 
0.000001 
0.000002 
0.000002 
0.000002 
0.000002 
0.000002 
0.000002 
0.000003 
0.000003 
0.000003 
0.000003 
0.000003 
0.000004 
0.000004 
0.000004 
0.000005 
0.000005 
0.000005 
0.000006 
0.000006 
0.000007 
0.000007 
0.000008 
0.000008 
0.000009 
0.000010 
0.000010 
0.000011 
0.000012 
0.000013 
0.000014 
0.000014 
0.000015 
0.000017 
0.000018 
0.000019 
0.000020 
0.000022 
0.000023 
0.000025 
0.000026 
0.000028 
0.000030 
0.000032 
0.000034 
0.000036 
0.000038 
0.000041 
0.000043 
0.000046 
0.000049 
0.000052 
0.000055 
0.000059 
0.000062 
0.000066 
0.000070 
0.000074 
0.000079 
0.000083 
0.000088 
0.000093 
0.000099 
0.000104 
0.000110 
0.000116 
0.000123 
0.000130 
0.000137 
0.000144 
0.000152 
0.000160 
0.000168 
0.000177 
0.000187 
0.000196 
0.000206 
0.000217 
0.000228 
0.000239 
0.000251 
0.000263 
0.000276 
0.000289 
0.000303 
0.000318 
0.000333 
0.000348 
0.000364 
0.000381 
0.000398 
0.000416 
0.000434 
0.000453 
0.000473 
0.000493 
0.000514 
0.000536 
0.000559 
0.000582 
0.000605 
0.000630 
0.000655 
0.000681 
0.000708 
0.000736 
0.000764 
0.000793 
0.000823 
0.000853 
0.000884 
0.000917 
0.000950 
0.000983 
0.001018 
0.001053 
0.001089 
0.001126 
0.001164 
0.001202 
0.001241 
0.001281 
0.001322 
0.001363 
0.001406 
0.001449 
0.001493 
0.001537 
0.001582 
0.001628 
0.001675 
0.001722 
0.001770 
0.001819 
0.001868 
0.001918 
0.001969 
0.002020 
0.002072 
0.002124 
0.002177 
0.002230 
0.002284 
0.002338 
0.002393 
0.002448 
0.002503 
0.002559 
0.002615 
0.002672 
0.002728 
0.002785 
0.002843 
0.002900 
0.002958 
0.003015 
0.003073 
0.003131 
0.003189 
0.003247 
0.003305 
0.003363 
0.003421 
0.003478 
0.003536 
0.003593 
0.003650 
0.003707 
0.003764 
0.003820 
0.003876 
0.003931 
0.003987 
0.004041 
0.004095 
0.004149 
0.004202 
0.004255 
0.004307 
0.004358 
0.004409 
0.004459 
0.004508 
0.004557 
0.004604 
0.004651 
0.004698 
0.004743 
0.004787 
0.004831 
0.004873 
0.004915 
0.004955 
0.004995 
0.005033 
0.005071 
0.005107 
0.005142 
0.005176 
0.005209 
0.005241 
0.005272 
0.005301 
0.005329 
0.005356 
0.005382 
0.005406 
0.005430 
0.005451 
0.005472 
0.005491 
0.005509 
0.005526 
0.005541 
0.005555 
0.005567 
0.005579 
0.005588 
0.005597 
0.005604 
0.005609 
0.005613 
0.005616 
0.005618 
0.000000 
0.000000 
0.000000 
0.000000 
0.000000 
0.000000 
0.000000 
0.000000 
0.000000 
0.000000 
0.000000 
0.000000 
0.000000 
0.000000 
0.000000 
0.000000 
0.000000 
0.000000 
0.000000 
0.000000 
0.000000 
0.000000 
0.000000 
0.000000 
0.000000 
0.000000 
0.000000 
0.000000 
0.000000 
0.000000 
0.000000 
0.000000 
0.000000 
0.000000 
0.000000 
0.000000 
0.000000 
0.000000 
0.000000 
0.000000 
0.000000 
0.000000 
0.000000 
0.000000 
0.000000 
0.000000 
0.000000 
0.000000 
0.000000 
0.000000 
0.000000 
0.000000 
0.000000 
0.000000 
0.000000 
0.000000 
0.000000 
0.000000 
0.000000 
0.000000 
0.000000 
0.000000 
0.000000 
0.000001 
0.000001 
0.000001 
0.000001 
0.000001 
0.000001 
0.000001 
0.000001 
0.000001 
0.000001 
0.000001 
0.000001 
0.000001 
0.000002 
0.000002 
0.000002 
0.000002 
0.000002 
0.000002 
0.000003 
0.000003 
0.000003 
0.000003 
0.000003 
0.000004 
0.000004 
0.000004 
0.000005 
0.000005 
0.000005 
0.000006 
0.000006 
0.000007 
0.000007 
0.000008 
0.000008 
0.000009 
0.000010 
0.000010 
0.000011 
0.000012 
0.000013 
0.000014 
0.000015 
0.000016 
0.000017 
0.000018 
0.000019 
0.000021 
0.000022 
0.000024 
0.000025 
0.000027 
0.000029 
0.000031 
0.000033 
0.000035 
0.000037 
0.000040 
0.000042 
0.000045 
0.000048 
0.000051 
0.000054 
0.000058 
0.000061 
0.000065 
0.000069 
0.000073 
0.000077 
0.000082 
0.000087 
0.000092 
0.000097 
0.000103 
0.000109 
0.000115 
0.000122 
0.000129 
0.000136 
0.000144 
0.000151 
0.000160 
0.000168 
0.000177 
0.000187 
0.000197 
0.000207 
0.000218 
0.000229 
0.000241 
0.000253 
0.000266 
0.000279 
0.000293 
0.000307 
0.000322 
0.000338 
0.000354 
0.000371 
0.000388 
0.000406 
0.000425 
0.000444 
0.000464 
0.000485 
0.000507 
0.000529 
0.000552 
0.000576 
0.000600 
0.000625 
0.000651 
0.000678 
0.000706 
0.000734 
0.000764 
0.000794 
0.000825 
0.000857 
0.000890 
0.000924 
0.000958 
0.000994 
0.001030 
0.001067 
0.001105 
0.001145 
0.001185 
0.001225 
0.001267 
0.001310 
0.001354 
0.001398 
0.001444 
0.001490 
0.001537 
0.001585 
0.001634 
0.001684 
0.001735 
0.001786 
0.001838 
0.001891 
0.001945 
0.002000 
0.002056 
0.002112 
0.002169 
0.002226 
0.002285 
0.002344 
0.002403 
0.002464 
0.002525 
0.002586 
0.002648 
0.002711 
0.002774 
0.002837 
0.002901 
0.002965 
0.003030 
0.003095 
0.003160 
0.003226 
0.003292 
0.003358 
0.003424 
0.003490 
0.003557 
0.003623 
0.003690 
0.003757 
0.003823 
0.003890 
0.003956 
0.004022 
0.004088 
0.004154 
0.004220 
0.004285 
0.004350 
0.004414 
0.004478 
0.004542 
0.004605 
0.004668 
0.004730 
0.004792 
0.004853 
0.004913 
0.004972 
0.005031 
0.005089 
0.005146 
0.005203 
0.005258 
0.005313 
0.005367 
0.005419 
0.005471 
0.005522 
0.005572 
0.005620 
0.005668 
0.005714 
0.005759 
0.005803 
0.005846 
0.005887 
0.005928 
0.005967 
0.006004 
0.006041 
0.006076 
0.006109 
0.006141 
0.006172 
0.006202 
0.006230 
0.006256 
0.006281 
0.006304 
0.006326 
0.006347 
0.006366 
0.006383 
0.006399 
0.006413 
0.006426 
0.006437 
0.006447 
0.006455 
0.006461 
0.006466 
0.006469 
0.006471 
0.000000 
0.000000 
0.000000 
0.000000 
0.000000 
0.000000 
0.000000 
0.000000 
0.000000 
0.000000 
0.000000 
0.000000 
0.000000 
0.000000 
0.000000 
0.000000 
0.000000 
0.000000 
0.000000 
0.000000 
0.000000 
0.000000 
0.000000 
0.000000 
0.000000 
0.000000 