# vtk DataFile Version 3.0
results.vtk
ASCII
DATASET RECTILINEAR_GRID
DIMENSIONS 301 301 1
X_COORDINATES 301 double
0.000000 0.003333 0.006667 0.010000 0.013333 0.016667 0.020000 0.023333 0.026667 0.030000 0.033333 0.036667 0.040000 0.043333 0.046667 0.050000 0.053333 0.056667 0.060000 0.063333 0.066667 0.070000 0.073333 0.076667 0.080000 0.083333 0.086667 0.090000 0.093333 0.096667 0.100000 0.103333 0.106667 0.110000 0.113333 0.116667 0.120000 0.123333 0.126667 0.130000 0.133333 0.136667 0.140000 0.143333 0.146667 0.150000 0.153333 0.156667 0.160000 0.163333 0.166667 0.170000 0.173333 0.176667 0.180000 0.183333 0.186667 0.190000 0.193333 0.196667 0.200000 0.203333 0.206667 0.210000 0.213333 0.216667 0.220000 0.223333 0.226667 0.230000 0.233333 0.236667 0.240000 0.243333 0.246667 0.250000 0.253333 0.256667 0.260000 0.263333 0.266667 0.270000 0.273333 0.276667 0.280000 0.283333 0.286667 0.290000 0.293333 0.296667 0.300000 0.303333 0.306667 0.310000 0.313333 0.316667 0.320000 0.323333 0.326667 0.330000 0.333333 0.336667 0.340000 0.343333 0.346667 0.350000 0.353333 0.356667 0.360000 0.363333 0.366667 0.370000 0.373333 0.376667 0.380000 0.383333 0.386667 0.390000 0.393333 0.396667 0.400000 0.403333 0.406667 0.410000 0.413333 0.416667 0.420000 0.423333 0.426667 0.430000 0.433333 0.436667 0.440000 0.443333 0.446667 0.450000 0.453333 0.456667 0.460000 0.463333 0.466667 0.470000 0.473333 0.476667 0.480000 0.483333 0.486667 0.490000 0.493333 0.496667 0.500000 0.503333 0.506667 0.510000 0.513333 0.516667 0.520000 0.523333 0.526667 0.530000 0.533333 0.536667 0.540000 0.543333 0.546667 0.550000 0.553333 0.556667 0.560000 0.563333 0.566667 0.570000 0.573333 0.576667 0.580000 0.583333 0.586667 0.590000 0.593333 0.596667 0.600000 0.603333 0.606667 0.610000 0.613333 0.616667 0.620000 0.623333 0.626667 0.630000 0.633333 0.636667 0.640000 0.643333 0.646667 0.650000 0.653333 0.656667 0.660000 0.663333 0.666667 0.670000 0.673333 0.676667 0.680000 0.683333 0.686667 0.690000 0.693333 0.696667 0.700000 0.703333 0.706667 0.710000 0.713333 0.716667 0.720000 0.723333 0.726667 0.730000 0.733333 0.736667 0.740000 0.743333 0.746667 0.750000 0.753333 0.756667 0.760000 0.763333 0.766667 0.770000 0.773333 0.776667 0.780000 0.783333 0.786667 0.790000 0.793333 0.796667 0.800000 0.803333 0.806667 0.810000 0.813333 0.816667 0.820000 0.823333 0.826667 0.830000 0.833333 0.836667 0.840000 0.843333 0.846667 0.850000 0.853333 0.856667 0.860000 0.863333 0.866667 0.870000 0.873333 0.876667 0.880000 0.883333 0.886667 0.890000 0.893333 0.896667 0.900000 0.903333 0.906667 0.910000 0.913333 0.916667 0.920000 0.923333 0.926667 0.930000 0.933333 0.936667 0.940000 0.943333 0.946667 0.950000 0.953333 0.956667 0.960000 0.963333 0.966667 0.970000 0.973333 0.976667 0.980000 0.983333 0.986667 0.990000 0.993333 0.996667 1.000000 
Y_COORDINATES 301 double
0.000000 0.003333 0.006667 0.010000 0.013333 0.016667 0.020000 0.023333 0.026667 0.030000 0.033333 0.036667 0.040000 0.043333 0.046667 0.050000 0.053333 0.056667 0.060000 0.063333 0.066667 0.070000 0.073333 0.076667 0.080000 0.083333 0.086667 0.090000 0.093333 0.096667 0.100000 0.103333 0.106667 0.110000 0.113333 0.116667 0.120000 0.123333 0.126667 0.130000 0.133333 0.136667 0.140000 0.143333 0.146667 0.150000 0.153333 0.156667 0.160000 0.163333 0.166667 0.170000 0.173333 0.176667 0.180000 0.183333 0.186667 0.190000 0.193333 0.196667 0.200000 0.203333 0.206667 0.210000 0.213333 0.216667 0.220000 0.223333 0.226667 0.230000 0.233333 0.236667 0.240000 0.243333 0.246667 0.250000 0.253333 0.256667 0.260000 0.263333 0.266667 0.270000 0.273333 0.276667 0.280000 0.283333 0.286667 0.290000 0.293333 0.296667 0.300000 0.303333 0.306667 0.310000 0.313333 0.316667 0.320000 0.323333 0.326667 0.330000 0.333333 0.336667 0.340000 0.343333 0.346667 0.350000 0.353333 0.356667 0.360000 0.363333 0.366667 0.370000 0.373333 0.376667 0.380000 0.383333 0.386667 0.390000 0.393333 0.396667 0.400000 0.403333 0.406667 0.410000 0.413333 0.416667 0.420000 0.423333 0.426667 0.430000 0.433333 0.436667 0.440000 0.443333 0.446667 0.450000 0.453333 0.456667 0.460000 0.463333 0.466667 0.470000 0.473333 0.476667 0.480000 0.483333 0.486667 0.490000 0.493333 0.496667 0.500000 0.503333 0.506667 0.510000 0.513333 0.516667 0.520000 0.523333 0.526667 0.530000 0.533333 0.536667 0.540000 0.543333 0.546667 0.550000 0.553333 0.556667 0.560000 0.563333 0.566667 0.570000 0.573333 0.576667 0.580000 0.583333 0.586667 0.590000 0.593333 0.596667 0.600000 0.603333 0.606667 0.610000 0.613333 0.616667 0.620000 0.623333 0.626667 0.630000 0.633333 0.636667 0.640000 0.643333 0.646667 0.650000 0.653333 0.656667 0.660000 0.663333 0.666667 0.670000 0.673333 0.676667 0.680000 0.683333 0.686667 0.690000 0.693333 0.696667 0.700000 0.703333 0.706667 0.710000 0.713333 0.716667 0.720000 0.723333 0.726667 0.730000 0.733333 0.736667 0.740000 0.743333 0.746667 0.750000 0.753333 0.756667 0.760000 0.763333 0.766667 0.770000 0.773333 0.776667 0.780000 0.783333 0.786667 0.790000 0.793333 0.796667 0.800000 0.803333 0.806667 0.810000 0.813333 0.816667 0.820000 0.823333 0.826667 0.830000 0.833333 0.836667 0.840000 0.843333 0.846667 0.850000 0.853333 0.856667 0.860000 0.863333 0.866667 0.870000 0.873333 0.876667 0.880000 0.883333 0.886667 0.890000 0.893333 0.896667 0.900000 0.903333 0.906667 0.910000 0.913333 0.916667 0.920000 0.923333 0.926667 0.930000 0.933333 0.936667 0.940000 0.943333 0.946667 0.950000 0.953333 0.956667 0.960000 0.963333 0.966667 0.970000 0.973333 0.976667 0.980000 0.983333 0.986667 0.990000 0.993333 0.996667 1.000000 
Z_COORDINATES 1 double
0
POINT_DATA 90601 
FIELD FieldData 1 
Concentração 1 90601 double 
0.000000 
0.000000 
0.000000 
0.000000 
0.000000 
0.000000 
0.000000 
0.000000 
0.000000 
0.000000 
0.000000 
0.000000 
0.000000 
0.000000 
0.000000 
0.000000 
0.000000 
0.000000 
0.000000 
0.000000 
0.000000 
0.000000 
0.000000 
0.000000 
0.000000 
0.000000 
0.000000 
0.000000 
0.000000 
0.000000 
0.000000 
0.000000 
0.000000 
0.000000 
0.000000 
0.000000 
0.000000 
0.000000 
0.000000 
0.000000 
0.000000 
0.000000 
0.000000 
0.000000 
0.000000 
0.000000 
0.000000 
0.000000 
0.000000 
0.000000 
0.000000 
0.000000 
0.000000 
0.000000 
0.000000 
0.000000 
0.000000 
0.000000 
0.000000 
0.000000 
0.000000 
0.000000 
0.000000 
0.000000 
0.000000 
0.000000 
0.000000 
0.000000 
0.000000 
0.000000 
0.000000 
0.000000 
0.000000 
0.000000 
0.000000 
0.000000 
0.000000 
0.000000 
0.000000 
0.000000 
0.000000 
0.000000 
0.000000 
0.000000 
0.000000 
0.000000 
0.000000 
0.000000 
0.000000 
0.000000 
0.000000 
0.000000 
0.000000 
0.000000 
0.000000 
0.000000 
0.000000 
0.000000 
0.000000 
0.000000 
0.000000 
0.000000 
0.000000 
0.000000 
0.000000 
0.000000 
0.000000 
0.000000 
0.000000 
0.000001 
0.000001 
0.000001 
0.000001 
0.000001 
0.000001 
0.000001 
0.000001 
0.000001 
0.000001 
0.000001 
0.000001 
0.000001 
0.000001 
0.000001 
0.000001 
0.000001 
0.000002 
0.000002 
0.000002 
0.000002 
0.000002 
0.000002 
0.000002 
0.000002 
0.000003 
0.000003 
0.000003 
0.000003 
0.000003 
0.000003 
0.000004 
0.000004 
0.000004 
0.000004 
0.000005 
0.000005 
0.000005 
0.000006 
0.000006 
0.000006 
0.000007 
0.000007 
0.000007 
0.000008 
0.000008 
0.000008 
0.000009 
0.000009 
0.000010 
0.000010 
0.000011 
0.000012 
0.000012 
0.000013 
0.000013 
0.000014 
0.000015 
0.000015 
0.000016 
0.000017 
0.000018 
0.000019 
0.000020 
0.000020 
0.000021 
0.000022 
0.000023 
0.000024 
0.000025 
0.000027 
0.000028 
0.000029 
0.000030 
0.000031 
0.000033 
0.000034 
0.000035 
0.000037 
0.000038 
0.000040 
0.000041 
0.000043 
0.000045 
0.000046 
0.000048 
0.000050 
0.000052 
0.000054 
0.000056 
0.000058 
0.000060 
0.000062 
0.000064 
0.000066 
0.000068 
0.000070 
0.000073 
0.000075 
0.000077 
0.000080 
0.000082 
0.000085 
0.000088 
0.000090 
0.000093 
0.000096 
0.000098 
0.000101 
0.000104 
0.000107 
0.000110 
0.000113 
0.000116 
0.000119 
0.000122 
0.000125 
0.000128 
0.000131 
0.000134 
0.000137 
0.000141 
0.000144 
0.000147 
0.000151 
0.000154 
0.000157 
0.000161 
0.000164 
0.000167 
0.000171 
0.000174 
0.000177 
0.000181 
0.000184 
0.000188 
0.000191 
0.000194 
0.000198 
0.000201 
0.000205 
0.000208 
0.000211 
0.000215 
0.000218 
0.000221 
0.000224 
0.000228 
0.000231 
0.000234 
0.000237 
0.000240 
0.000243 
0.000246 
0.000249 
0.000252 
0.000255 
0.000258 
0.000260 
0.000263 
0.000266 
0.000268 
0.000271 
0.000273 
0.000276 
0.000278 
0.000280 
0.000282 
0.000284 
0.000286 
0.000288 
0.000290 
0.000292 
0.000294 
0.000295 
0.000297 
0.000298 
0.000300 
0.000301 
0.000302 
0.000303 
0.000304 
0.000305 
0.000306 
0.000307 
0.000308 
0.000308 
0.000309 
0.000309 
0.000309 
0.000310 
0.000310 
0.000000 
0.000000 
0.000000 
0.000000 
0.000000 
0.000000 
0.000000 
0.000000 
0.000000 
0.000000 
0.000000 
0.000000 
0.000000 
0.000000 
0.000000 
0.000000 
0.000000 
0.000000 
0.000000 
0.000000 
0.000000 
0.000000 
0.000000 
0.000000 
0.000000 
0.000000 
0.000000 
0.000000 
0.000000 
0.000000 
0.000000 
0.000000 
0.000000 
0.000000 
0.000000 
0.000000 
0.000000 
0.000000 
0.000000 
0.000000 
0.000000 
0.000000 
0.000000 
0.000000 
0.000000 
0.000000 
0.000000 
0.000000 
0.000000 
0.000000 
0.000000 
0.000000 
0.000000 
0.000000 
0.000000 
0.000000 
0.000000 
0.000000 
0.000000 
0.000000 
0.000000 
0.000000 
0.000000 
0.000000 
0.000000 
0.000000 
0.000000 
0.000000 
0.000000 
0.000000 
0.000000 
0.000000 
0.000000 
0.000000 
0.000000 
0.000000 
0.000000 
0.000000 
0.000000 
0.000000 
0.000000 
0.000000 
0.000000 
0.000000 
0.000000 
0.000000 
0.000000 
0.000000 
0.000000 
0.000000 
0.000000 
0.000000 
0.000000 
0.000000 
0.000000 
0.000000 
0.000000 
0.000000 
0.000000 
0.000000 
0.000001 
0.000001 
0.000001 
0.000001 
0.000001 
0.000001 
0.000001 
0.000001 
0.000001 
0.000001 
0.000001 
0.000001 
0.000001 
0.000001 
0.000001 
0.000002 
0.000002 
0.000002 
0.000002 
0.000002 
0.000002 
0.000002 
0.000002 
0.000003 
0.000003 
0.000003 
0.000003 
0.000003 
0.000004 
0.000004 
0.000004 
0.000004 
0.000005 
0.000005 
0.000005 
0.000006 
0.000006 
0.000006 
0.000007 
0.000007 
0.000007 
0.000008 
0.000008 
0.000009 
0.000009 
0.000010 
0.000011 
0.000011 
0.000012 
0.000012 
0.000013 
0.000014 
0.000015 
0.000015 
0.000016 
0.000017 
0.000018 
0.000019 
0.000020 
0.000021 
0.000022 
0.000023 
0.000024 
0.000026 
0.000027 
0.000028 
0.000030 
0.000031 
0.000033 
0.000034 
0.000036 
0.000037 
0.000039 
0.000041 
0.000043 
0.000045 
0.000047 
0.000049 
0.000051 
0.000053 
0.000056 
0.000058 
0.000061 
0.000063 
0.000066 
0.000068 
0.000071 
0.000074 
0.000077 
0.000080 
0.000083 
0.000087 
0.000090 
0.000093 
0.000097 
0.000100 
0.000104 
0.000108 
0.000112 
0.000116 
0.000120 
0.000124 
0.000128 
0.000132 
0.000137 
0.000141 
0.000146 
0.000151 
0.000156 
0.000161 
0.000166 
0.000171 
0.000176 
0.000181 
0.000186 
0.000192 
0.000197 
0.000203 
0.000209 
0.000215 
0.000220 
0.000226 
0.000232 
0.000238 
0.000244 
0.000251 
0.000257 
0.000263 
0.000270 
0.000276 
0.000283 
0.000289 
0.000296 
0.000302 
0.000309 
0.000316 
0.000322 
0.000329 
0.000336 
0.000343 
0.000350 
0.000356 
0.000363 
0.000370 
0.000377 
0.000384 
0.000390 
0.000397 
0.000404 
0.000411 
0.000417 
0.000424 
0.000431 
0.000437 
0.000444 
0.000450 
0.000457 
0.000463 
0.000470 
0.000476 
0.000482 
0.000488 
0.000494 
0.000500 
0.000506 
0.000511 
0.000517 
0.000523 
0.000528 
0.000533 
0.000538 
0.000543 
0.000548 
0.000553 
0.000558 
0.000562 
0.000567 
0.000571 
0.000575 
0.000579 
0.000583 
0.000586 
0.000590 
0.000593 
0.000596 
0.000599 
0.000602 
0.000604 
0.000607 
0.000609 
0.000611 
0.000613 
0.000615 
0.000616 
0.000617 
0.000619 
0.000619 
0.000620 
0.000621 
0.000621 
0.000621 
0.000000 
0.000000 
0.000000 
0.000000 
0.000000 
0.000000 
0.000000 
0.000000 
0.000000 
0.000000 
0.000000 
0.000000 
0.000000 
0.000000 
0.000000 
0.000000 
0.000000 
0.000000 
0.000000 
0.000000 
0.000000 
0.000000 
0.000000 
0.000000 
0.000000 
0.000000 
0.000000 
0.000000 
0.000000 
0.000000 
0.000000 
0.000000 
0.000000 
0.000000 
0.000000 
0.000000 
0.000000 
0.000000 
0.000000 
0.000000 
0.000000 
0.000000 
0.000000 
0.000000 
0.000000 
0.000000 
0.000000 
0.000000 
0.000000 
0.000000 
0.000000 
0.000000 
0.000000 
0.000000 
0.000000 
0.000000 
0.000000 
0.000000 
0.000000 
0.000000 
0.000000 
0.000000 
0.000000 
0.000000 
0.000000 
0.000000 
0.000000 
0.000000 
0.000000 
0.000000 
0.000000 
0.000000 
0.000000 
0.000000 
0.000000 
0.000000 
0.000000 
0.000000 
0.000000 
0.000000 
0.000000 
0.000000 
0.000000 
0.000000 
0.000000 
0.000000 
0.000000 
0.000000 
0.000000 
0.000000 
0.000000 
0.000000 
0.000000 
0.000000 
0.000001 
0.000001 
0.000001 
0.000001 
0.000001 
0.000001 
0.000001 
0.000001 
0.000001 
0.000001 
0.000001 
0.000001 
0.000001 
0.000001 
0.000001 
0.000002 
0.000002 
0.000002 
0.000002 
0.000002 
0.000002 
0.000002 
0.000002 
0.000003 
0.000003 
0.000003 
0.000003 
0.000003 
0.000004 
0.000004 
0.000004 
0.000005 
0.000005 
0.000005 
0.000005 
0.000006 
0.000006 
0.000007 
0.000007 
0.000007 
0.000008 
0.000008 
0.000009 
0.000009 
0.000010 
0.000011 
0.000011 
0.000012 
0.000013 
0.000013 
0.000014 
0.000015 
0.000016 
0.000017 
0.000018 
0.000019 
0.000020 
0.000021 
0.000022 
0.000023 
0.000025 
0.000026 
0.000027 
0.000029 
0.000030 
0.000032 
0.000033 
0.000035 
0.000037 
0.000039 
0.000041 
0.000043 
0.000045 
0.000047 
0.000049 
0.000052 
0.000054 
0.000057 
0.000059 
0.000062 
0.000065 
0.000068 
0.000071 
0.000074 
0.000077 
0.000081 
0.000084 
0.000088 
0.000092 
0.000095 
0.000099 
0.000104 
0.000108 
0.000112 
0.000117 
0.000121 
0.000126 
0.000131 
0.000136 
0.000141 
0.000146 
0.000152 
0.000157 
0.000163 
0.000169 
0.000175 
0.000181 
0.000187 
0.000194 
0.000200 
0.000207 
0.000214 
0.000221 
0.000228 
0.000235 
0.000243 
0.000250 
0.000258 
0.000266 
0.000274 
0.000282 
0.000290 
0.000298 
0.000307 
0.000315 
0.000324 
0.000333 
0.000342 
0.000351 
0.000360 
0.000369 
0.000379 
0.000388 
0.000398 
0.000407 
0.000417 
0.000427 
0.000437 
0.000447 
0.000457 
0.000467 
0.000477 
0.000487 
0.000497 
0.000507 
0.000517 
0.000528 
0.000538 
0.000548 
0.000559 
0.000569 
0.000579 
0.000589 
0.000600 
0.000610 
0.000620 
0.000630 
0.000640 
0.000650 
0.000660 
0.000670 
0.000680 
0.000689 
0.000699 
0.000709 
0.000718 
0.000727 
0.000736 
0.000745 
0.000754 
0.000763 
0.000772 
0.000780 
0.000788 
0.000797 
0.000805 
0.000812 
0.000820 
0.000827 
0.000834 
0.000841 
0.000848 
0.000855 
0.000861 
0.000867 
0.000873 
0.000879 
0.000884 
0.000889 
0.000894 
0.000899 
0.000903 
0.000908 
0.000912 
0.000915 
0.000919 
0.000922 
0.000924 
0.000927 
0.000929 
0.000931 
0.000933 
0.000934 
0.000936 
0.000936 
0.000937 
0.000937 
0.000000 
0.000000 
0.000000 
0.000000 
0.000000 
0.000000 
0.000000 
0.000000 
0.000000 
0.000000 
0.000000 
0.000000 
0.000000 
0.000000 
0.000000 
0.000000 
0.000000 
0.000000 
0.000000 
0.000000 
0.000000 
0.000000 
0.000000 
0.000000 
0.000000 
0.000000 
0.000000 
0.000000 
0.000000 
0.000000 
0.000000 
0.000000 
0.000000 
0.000000 
0.000000 
0.000000 
0.000000 
0.000000 
0.000000 
0.000000 
0.000000 
0.000000 
0.000000 
0.000000 
0.000000 
0.000000 
0.000000 
0.000000 
0.000000 
0.000000 
0.000000 
0.000000 
0.000000 
0.000000 
0.000000 
0.000000 
0.000000 
0.000000 
0.000000 
0.000000 
0.000000 
0.000000 
0.000000 
0.000000 
0.000000 
0.000000 
0.000000 
0.000000 
0.000000 
0.000000 
0.000000 
0.000000 
0.000000 
0.000000 
0.000000 
0.000000 
0.000000 
0.000000 
0.000000 
0.000000 
0.000000 
0.000000 
0.000000 
0.000000 
0.000000 
0.000000 
0.000000 
0.000000 
0.000000 
0.000000 
0.000001 
0.000001 
0.000001 
0.000001 
0.000001 
0.000001 
0.000001 
0.000001 
0.000001 
0.000001 
0.000001 
0.000001 
0.000001 
0.000001 
0.000001 
0.000002 
0.000002 
0.000002 
0.000002 
0.000002 
0.000002 
0.000002 
0.000003 
0.000003 
0.000003 
0.000003 
0.000003 
0.000004 
0.000004 
0.000004 
0.000004 
0.000005 
0.000005 
0.000005 
0.000006 
0.000006 
0.000006 
0.000007 
0.000007 
0.000008 
0.000008 
0.000009 
0.000009 
0.000010 
0.000011 
0.000011 
0.000012 
0.000013 
0.000014 
0.000014 
0.000015 
0.000016 
0.000017 
0.000018 
0.000019 
0.000020 
0.000021 
0.000023 
0.000024 
0.000025 
0.000027 
0.000028 
0.000030 
0.000031 
0.000033 
0.000035 
0.000037 
0.000039 
0.000041 
0.000043 
0.000045 
0.000047 
0.000050 
0.000052 
0.000055 
0.000058 
0.000061 
0.000063 
0.000067 
0.000070 
0.000073 
0.000076 
0.000080 
0.000084 
0.000088 
0.000092 
0.000096 
0.000100 
0.000104 
0.000109 
0.000114 
0.000118 
0.000124 
0.000129 
0.000134 
0.000140 
0.000145 
0.000151 
0.000157 
0.000163 
0.000170 
0.000176 
0.000183 
0.000190 
0.000197 
0.000205 
0.000212 
0.000220 
0.000228 
0.000236 
0.000244 
0.000252 
0.000261 
0.000270 
0.000279 
0.000288 
0.000298 
0.000307 
0.000317 
0.000327 
0.000337 
0.000347 
0.000358 
0.000369 
0.000380 
0.000391 
0.000402 
0.000413 
0.000425 
0.000437 
0.000448 
0.000460 
0.000473 
0.000485 
0.000497 
0.000510 
0.000523 
0.000535 
0.000548 
0.000561 
0.000575 
0.000588 
0.000601 
0.000615 
0.000628 
0.000642 
0.000655 
0.000669 
0.000683 
0.000696 
0.000710 
0.000724 
0.000738 
0.000752 
0.000765 
0.000779 
0.000793 
0.000807 
0.000820 
0.000834 
0.000848 
0.000861 
0.000874 
0.000888 
0.000901 
0.000914 
0.000927 
0.000940 
0.000953 
0.000965 
0.000978 
0.000990 
0.001002 
0.001014 
0.001026 
0.001038 
0.001049 
0.001060 
0.001071 
0.001082 
0.001092 
0.001102 
0.001112 
0.001122 
0.001131 
0.001140 
0.001149 
0.001157 
0.001166 
0.001174 
0.001181 
0.001188 
0.001195 
0.001202 
0.001208 
0.001214 
0.001220 
0.001225 
0.001230 
0.001234 
0.001238 
0.001242 
0.001246 
0.001249 
0.001251 
0.001254 
0.001256 
0.001257 
0.001258 
0.001259 
0.001259 
0.000000 
0.000000 
0.000000 
0.000000 
0.000000 
0.000000 
0.000000 
0.000000 
0.000000 
0.000000 
0.000000 
0.000000 
0.000000 
0.000000 
0.000000 
0.000000 
0.000000 
0.000000 
0.000000 
0.000000 
0.000000 
0.000000 
0.000000 
0.000000 
0.000000 
0.000000 
0.000000 
0.000000 
0.000000 
0.000000 
0.000000 
0.000000 
0.000000 
0.000000 
0.000000 
0.000000 
0.000000 
0.000000 
0.000000 
0.000000 
0.000000 
0.000000 
0.000000 
0.000000 
0.000000 
0.000000 
0.000000 
0.000000 
0.000000 
0.000000 
0.000000 
0.000000 
0.000000 
0.000000 
0.000000 
0.000000 
0.000000 
0.000000 
0.000000 
0.000000 
0.000000 
0.000000 
0.000000 
0.000000 
0.000000 
0.000000 
0.000000 
0.000000 
0.000000 
0.000000 
0.000000 
0.000000 
0.000000 
0.000000 
0.000000 
0.000000 
0.000000 
0.000000 
0.000000 
0.000000 
0.000000 
0.000000 
0.000000 
0.000000 
0.000000 
0.000000 
0.000000 
0.000001 
0.000001 
0.000001 
0.000001 
0.000001 
0.000001 
0.000001 
0.000001 
0.000001 
0.000001 
0.000001 
0.000001 
0.000001 
0.000001 
0.000001 
0.000002 
0.000002 
0.000002 
0.000002 
0.000002 
0.000002 
0.000002 
0.000003 
0.000003 
0.000003 
0.000003 
0.000003 
0.000004 
0.000004 
0.000004 
0.000005 
0.000005 
0.000005 
0.000006 
0.000006 
0.000006 
0.000007 
0.000007 
0.000008 
0.000008 
0.000009 
0.000009 
0.000010 
0.000011 
0.000011 
0.000012 
0.000013 
0.000014 
0.000014 
0.000015 
0.000016 
0.000017 
0.000018 
0.000019 
0.000021 
0.000022 
0.000023 
0.000024 
0.000026 
0.000027 
0.000029 
0.000030 
0.000032 
0.000034 
0.000036 
0.000038 
0.000040 
0.000042 
0.000044 
0.000047 
0.000049 
0.000052 
0.000054 
0.000057 
0.000060 
0.000063 
0.000066 
0.000070 
0.000073 
0.000077 
0.000081 
0.000084 
0.000089 
0.000093 
0.000097 
0.000102 
0.000106 
0.000111 
0.000116 
0.000121 
0.000127 
0.000132 
0.000138 
0.000144 
0.000150 
0.000157 
0.000163 
0.000170 
0.000177 
0.000184 
0.000192 
0.000199 
0.000207 
0.000215 
0.000224 
0.000232 
0.000241 
0.000250 
0.000259 
0.000269 
0.000279 
0.000289 
0.000299 
0.000309 
0.000320 
0.000331 
0.000342 
0.000354 
0.000365 
0.000377 
0.000389 
0.000402 
0.000414 
0.000427 
0.000440 
0.000454 
0.000467 
0.000481 
0.000495 
0.000509 
0.000523 
0.000538 
0.000553 
0.000568 
0.000583 
0.000598 
0.000614 
0.000630 
0.000645 
0.000662 
0.000678 
0.000694 
0.000711 
0.000727 
0.000744 
0.000761 
0.000778 
0.000795 
0.000812 
0.000829 
0.000846 
0.000863 
0.000881 
0.000898 
0.000916 
0.000933 
0.000950 
0.000968 
0.000985 
0.001003 
0.001020 
0.001037 
0.001054 
0.001071 
0.001088 
0.001105 
0.001122 
0.001139 
0.001155 
0.001172 
0.001188 
0.001204 
0.001220 
0.001236 
0.001251 
0.001266 
0.001281 
0.001296 
0.001311 
0.001325 
0.001339 
0.001353 
0.001366 
0.001379 
0.001392 
0.001404 
0.001417 
0.001428 
0.001440 
0.001451 
0.001462 
0.001472 
0.001482 
0.001491 
0.001501 
0.001509 
0.001518 
0.001525 
0.001533 
0.001540 
0.001547 
0.001553 
0.001558 
0.001564 
0.001568 
0.001573 
0.001576 
0.001580 
0.001583 
0.001585 
0.001587 
0.001588 
0.001589 
0.001590 
0.000000 
0.000000 
0.000000 
0.000000 
0.000000 
0.000000 
0.000000 
0.000000 
0.000000 
0.000000 
0.000000 
0.000000 
0.000000 
0.000000 
0.000000 
0.000000 
0.000000 
0.000000 
0.000000 
0.000000 
0.000000 
0.000000 
0.000000 
0.000000 
0.000000 
0.000000 
0.000000 
0.000000 
0.000000 
0.000000 
0.000000 
0.000000 
0.000000 
0.000000 
0.000000 
0.000000 
0.000000 
0.000000 
0.000000 
0.000000 
0.000000 
0.000000 
0.000000 
0.000000 
0.000000 
0.000000 
0.000000 
0.000000 
0.000000 
0.000000 
0.000000 
0.000000 
0.000000 
0.000000 
0.000000 
0.000000 
0.000000 
0.000000 
0.000000 
0.000000 
0.000000 
0.000000 
0.000000 
0.000000 
0.000000 
0.000000 
0.000000 
0.000000 
0.000000 
0.000000 
0.000000 
0.000000 
0.000000 
0.000000 
0.000000 
0.000000 
0.000000 
0.000000 
0.000000 
0.000000 
0.000000 
0.000000 
0.000000 
0.000000 
0.000000 
0.000001 
0.000001 
0.000001 
0.000001 
0.000001 
0.000001 
0.000001 
0.000001 
0.000001 
0.000001 
0.000001 
0.000001 
0.000001 
0.000001 
0.000002 
0.000002 
0.000002 
0.000002 
0.000002 
0.000002 
0.000002 
0.000003 
0.000003 
0.000003 
0.000003 
0.000003 
0.000004 
0.000004 
0.000004 
0.000005 
0.000005 
0.000005 
0.000006 
0.000006 
0.000006 
0.000007 
0.000007 
0.000008 
0.000008 
0.000009 
0.000009 
0.000010 
0.000011 
0.000011 
0.000012 
0.000013 
0.000014 
0.000015 
0.000016 
0.000017 
0.000018 
0.000019 
0.000020 
0.000021 
0.000022 
0.000024 
0.000025 
0.000027 
0.000028 
0.000030 
0.000032 
0.000033 
0.000035 
0.000037 
0.000039 
0.000042 
0.000044 
0.000046 
0.000049 
0.000051 
0.000054 
0.000057 
0.000060 
0.000063 
0.000067 
0.000070 
0.000074 
0.000077 
0.000081 
0.000085 
0.000090 
0.000094 
0.000099 
0.000103 
0.000108 
0.000113 
0.000119 
0.000124 
0.000130 
0.000136 
0.000142 
0.000148 
0.000155 
0.000162 
0.000169 
0.000176 
0.000184 
0.000191 
0.000200 
0.000208 
0.000216 
0.000225 
0.000234 
0.000244 
0.000253 
0.000263 
0.000273 
0.000284 
0.000294 
0.000305 
0.000317 
0.000328 
0.000340 
0.000352 
0.000365 
0.000377 
0.000391 
0.000404 
0.000417 
0.000431 
0.000446 
0.000460 
0.000475 
0.000490 
0.000505 
0.000521 
0.000537 
0.000553 
0.000570 
0.000586 
0.000603 
0.000620 
0.000638 
0.000656 
0.000674 
0.000692 
0.000710 
0.000729 
0.000748 
0.000767 
0.000786 
0.000806 
0.000826 
0.000845 
0.000865 
0.000886 
0.000906 
0.000926 
0.000947 
0.000968 
0.000988 
0.001009 
0.001030 
0.001051 
0.001072 
0.001093 
0.001114 
0.001135 
0.001157 
0.001178 
0.001199 
0.001220 
0.001241 
0.001262 
0.001283 
0.001303 
0.001324 
0.001344 
0.001365 
0.001385 
0.001405 
0.001425 
0.001445 
0.001464 
0.001483 
0.001502 
0.001521 
0.001539 
0.001558 
0.001576 
0.001593 
0.001610 
0.001627 
0.001644 
0.001660 
0.001676 
0.001692 
0.001707 
0.001721 
0.001736 
0.001749 
0.001763 
0.001776 
0.001788 
0.001800 
0.001812 
0.001823 
0.001833 
0.001843 
0.001853 
0.001862 
0.001870 
0.001878 
0.001886 
0.001893 
0.001899 
0.001905 
0.001910 
0.001915 
0.001919 
0.001922 
0.001925 
0.001927 
0.001929 
0.001930 
0.001931 
0.000000 
0.000000 
0.000000 
0.000000 
0.000000 
0.000000 
0.000000 
0.000000 
0.000000 
0.000000 
0.000000 
0.000000 
0.000000 
0.000000 
0.000000 
0.000000 
0.000000 
0.000000 
0.000000 
0.000000 
0.000000 
0.000000 
0.000000 
0.000000 
0.000000 
0.000000 
0.000000 
0.000000 
0.000000 
0.000000 
0.000000 
0.000000 
0.000000 
0.000000 
0.000000 
0.000000 
0.000000 
0.000000 
0.000000 
0.000000 
0.000000 
0.000000 
0.000000 
0.000000 
0.000000 
0.000000 
0.000000 
0.000000 
0.000000 
0.000000 
0.000000 
0.000000 
0.000000 
0.000000 
0.000000 
0.000000 
0.000000 
0.000000 
0.000000 
0.000000 
0.000000 
0.000000 
0.000000 
0.000000 
0.000000 
0.000000 
0.000000 
0.000000 
0.000000 
0.000000 
0.000000 
0.000000 
0.000000 
0.000000 
0.000000 
0.000000 
0.000000 
0.000000 
0.000000 
0.000000 
0.000000 
0.000000 
0.000000 
0.000001 
0.000001 
0.000001 
0.000001 
0.000001 
0.000001 
0.000001 
0.000001 
0.000001 
0.000001 
0.000001 
0.000001 
0.000001 
0.000001 
0.000002 
0.000002 
0.000002 
0.000002 
0.000002 
0.000002 
0.000002 
0.000003 
0.000003 
0.000003 
0.000003 
0.000004 
0.000004 
0.000004 
0.000004 
0.000005 
0.000005 
0.000005 
0.000006 
0.000006 
0.000007 
0.000007 
0.000008 
0.000008 
0.000009 
0.000009 
0.000010 
0.000011 
0.000011 
0.000012 
0.000013 
0.000014 
0.000015 
0.000015 
0.000016 
0.000018 
0.000019 
0.000020 
0.000021 
0.000022 
0.000024 
0.000025 
0.000027 
0.000028 
0.000030 
0.000032 
0.000034 
0.000036 
0.000038 
0.000040 
0.000042 
0.000044 
0.000047 
0.000050 
0.000052 
0.000055 
0.000058 
0.000061 
0.000065 
0.000068 
0.000072 
0.000076 
0.000079 
0.000084 
0.000088 
0.000092 
0.000097 
0.000102 
0.000107 
0.000112 
0.000117 
0.000123 
0.000129 
0.000135 
0.000141 
0.000148 
0.000155 
0.000162 
0.000169 
0.000177 
0.000185 
0.000193 
0.000201 
0.000210 
0.000219 
0.000228 
0.000238 
0.000248 
0.000258 
0.000268 
0.000279 
0.000290 
0.000301 
0.000313 
0.000325 
0.000338 
0.000350 
0.000364 
0.000377 
0.000391 
0.000405 
0.000419 
0.000434 
0.000449 
0.000465 
0.000480 
0.000497 
0.000513 
0.000530 
0.000547 
0.000565 
0.000583 
0.000601 
0.000619 
0.000638 
0.000657 
0.000677 
0.000697 
0.000717 
0.000737 
0.000758 
0.000779 
0.000800 
0.000822 
0.000844 
0.000866 
0.000888 
0.000911 
0.000934 
0.000957 
0.000980 
0.001004 
0.001027 
0.001051 
0.001075 
0.001099 
0.001124 
0.001148 
0.001173 
0.001197 
0.001222 
0.001247 
0.001272 
0.001297 
0.001322 
0.001347 
0.001372 
0.001396 
0.001421 
0.001446 
0.001471 
0.001496 
0.001520 
0.001545 
0.001569 
0.001593 
0.001617 
0.001641 
0.001665 
0.001688 
0.001711 
0.001734 
0.001757 
0.001779 
0.001802 
0.001823 
0.001845 
0.001866 
0.001887 
0.001907 
0.001927 
0.001946 
0.001966 
0.001984 
0.002003 
0.002020 
0.002038 
0.002054 
0.002071 
0.002087 
0.002102 
0.002116 
0.002131 
0.002144 
0.002157 
0.002170 
0.002181 
0.002193 
0.002203 
0.002213 
0.002223 
0.002231 
0.002239 
0.002247 
0.002254 
0.002260 
0.002265 
0.002270 
0.002274 
0.002278 
0.002280 
0.002282 
0.002284 
0.002284 
0.000000 
0.000000 
0.000000 
0.000000 
0.000000 
0.000000 
0.000000 
0.000000 
0.000000 
0.000000 
0.000000 
0.000000 
0.000000 
0.000000 
0.000000 
0.000000 
0.000000 
0.000000 
0.000000 
0.000000 
0.000000 
0.000000 
0.000000 
0.000000 
0.000000 
0.000000 
0.000000 
0.000000 
0.000000 
0.000000 
0.000000 
0.000000 
0.000000 
0.000000 
0.000000 
0.000000 
0.000000 
0.000000 
0.000000 
0.000000 
0.000000 
0.000000 
0.000000 
0.000000 
0.000000 
0.000000 
0.000000 
0.000000 
0.000000 
0.000000 
0.000000 
0.000000 
0.000000 
0.000000 
0.000000 
0.000000 
0.000000 
0.000000 
0.000000 
0.000000 
0.000000 
0.000000 
0.000000 
0.000000 
0.000000 
0.000000 
0.000000 
0.000000 
0.000000 
0.000000 
0.000000 
0.000000 
0.000000 
0.000000 
0.000000 
0.000000 
0.000000 
0.000000 
0.000000 
0.000000 
0.000000 
0.000001 
0.000001 
0.000001 
0.000001 
0.000001 
0.000001 
0.000001 
0.000001 
0.000001 
0.000001 
0.000001 
0.000001 
0.000001 
0.000001 
0.000002 
0.000002 
0.000002 
0.000002 
0.000002 
0.000002 
0.000003 
0.000003 
0.000003 
0.000003 
0.000003 
0.000004 
0.000004 
0.000004 
0.000005 
0.000005 
0.000005 
0.000006 
0.000006 
0.000006 
0.000007 
0.000007 
0.000008 
0.000008 
0.000009 
0.000010 
0.000010 
0.000011 
0.000012 
0.000012 
0.000013 
0.000014 
0.000015 
0.000016 
0.000017 
0.000018 
0.000019 
0.000021 
0.000022 
0.000023 
0.000025 
0.000026 
0.000028 
0.000030 
0.000031 
0.000033 
0.000035 
0.000037 
0.000039 
0.000042 
0.000044 
0.000047 
0.000049 
0.000052 
0.000055 
0.000058 
0.000061 
0.000065 
0.000068 
0.000072 
0.000076 
0.000080 
0.000084 
0.000089 
0.000093 
0.000098 
0.000103 
0.000108 
0.000114 
0.000119 
0.000125 
0.000131 
0.000138 
0.000144 
0.000151 
0.000158 
0.000166 
0.000173 
0.000181 
0.000190 
0.000198 
0.000207 
0.000216 
0.000226 
0.000236 
0.000246 
0.000256 
0.000267 
0.000278 
0.000290 
0.000302 
0.000314 
0.000326 
0.000339 
0.000353 
0.000366 
0.000380 
0.000395 
0.000410 
0.000425 
0.000441 
0.000457 
0.000473 
0.000490 
0.000507 
0.000525 
0.000543 
0.000561 
0.000580 
0.000600 
0.000619 
0.000639 
0.000660 
0.000681 
0.000702 
0.000723 
0.000745 
0.000768 
0.000790 
0.000813 
0.000837 
0.000861 
0.000885 
0.000909 
0.000934 
0.000959 
0.000985 
0.001010 
0.001036 
0.001063 
0.001089 
0.001116 
0.001143 
0.001170 
0.001198 
0.001225 
0.001253 
0.001281 
0.001310 
0.001338 
0.001366 
0.001395 
0.001424 
0.001452 
0.001481 
0.001510 
0.001539 
0.001568 
0.001597 
0.001626 
0.001655 
0.001683 
0.001712 
0.001741 
0.001769 
0.001798 
0.001826 
0.001854 
0.001882 
0.001909 
0.001937 
0.001964 
0.001990 
0.002017 
0.002043 
0.002069 
0.002095 
0.002120 
0.002145 
0.002169 
0.002193 
0.002217 
0.002240 
0.002262 
0.002284 
0.002306 
0.002327 
0.002348 
0.002368 
0.002387 
0.002406 
0.002424 
0.002442 
0.002459 
0.002475 
0.002491 
0.002506 
0.002520 
0.002534 
0.002547 
0.002559 
0.002571 
0.002581 
0.002591 
0.002601 
0.002609 
0.002617 
0.002624 
0.002630 
0.002636 
0.002641 
0.002645 
0.002648 
0.002650 
0.002652 
0.002653 
0.000000 
0.000000 
0.000000 
0.000000 
0.000000 
0.000000 
0.000000 
0.000000 
0.000000 
0.000000 
0.000000 
0.000000 
0.000000 
0.000000 
0.000000 
0.000000 
0.000000 
0.000000 
0.000000 
0.000000 
0.000000 
0.000000 
0.000000 
0.000000 
0.000000 
0.000000 