# vtk DataFile Version 3.0
results.vtk
ASCII
DATASET RECTILINEAR_GRID
DIMENSIONS 301 301 1
X_COORDINATES 301 double
0.000000 0.003333 0.006667 0.010000 0.013333 0.016667 0.020000 0.023333 0.026667 0.030000 0.033333 0.036667 0.040000 0.043333 0.046667 0.050000 0.053333 0.056667 0.060000 0.063333 0.066667 0.070000 0.073333 0.076667 0.080000 0.083333 0.086667 0.090000 0.093333 0.096667 0.100000 0.103333 0.106667 0.110000 0.113333 0.116667 0.120000 0.123333 0.126667 0.130000 0.133333 0.136667 0.140000 0.143333 0.146667 0.150000 0.153333 0.156667 0.160000 0.163333 0.166667 0.170000 0.173333 0.176667 0.180000 0.183333 0.186667 0.190000 0.193333 0.196667 0.200000 0.203333 0.206667 0.210000 0.213333 0.216667 0.220000 0.223333 0.226667 0.230000 0.233333 0.236667 0.240000 0.243333 0.246667 0.250000 0.253333 0.256667 0.260000 0.263333 0.266667 0.270000 0.273333 0.276667 0.280000 0.283333 0.286667 0.290000 0.293333 0.296667 0.300000 0.303333 0.306667 0.310000 0.313333 0.316667 0.320000 0.323333 0.326667 0.330000 0.333333 0.336667 0.340000 0.343333 0.346667 0.350000 0.353333 0.356667 0.360000 0.363333 0.366667 0.370000 0.373333 0.376667 0.380000 0.383333 0.386667 0.390000 0.393333 0.396667 0.400000 0.403333 0.406667 0.410000 0.413333 0.416667 0.420000 0.423333 0.426667 0.430000 0.433333 0.436667 0.440000 0.443333 0.446667 0.450000 0.453333 0.456667 0.460000 0.463333 0.466667 0.470000 0.473333 0.476667 0.480000 0.483333 0.486667 0.490000 0.493333 0.496667 0.500000 0.503333 0.506667 0.510000 0.513333 0.516667 0.520000 0.523333 0.526667 0.530000 0.533333 0.536667 0.540000 0.543333 0.546667 0.550000 0.553333 0.556667 0.560000 0.563333 0.566667 0.570000 0.573333 0.576667 0.580000 0.583333 0.586667 0.590000 0.593333 0.596667 0.600000 0.603333 0.606667 0.610000 0.613333 0.616667 0.620000 0.623333 0.626667 0.630000 0.633333 0.636667 0.640000 0.643333 0.646667 0.650000 0.653333 0.656667 0.660000 0.663333 0.666667 0.670000 0.673333 0.676667 0.680000 0.683333 0.686667 0.690000 0.693333 0.696667 0.700000 0.703333 0.706667 0.710000 0.713333 0.716667 0.720000 0.723333 0.726667 0.730000 0.733333 0.736667 0.740000 0.743333 0.746667 0.750000 0.753333 0.756667 0.760000 0.763333 0.766667 0.770000 0.773333 0.776667 0.780000 0.783333 0.786667 0.790000 0.793333 0.796667 0.800000 0.803333 0.806667 0.810000 0.813333 0.816667 0.820000 0.823333 0.826667 0.830000 0.833333 0.836667 0.840000 0.843333 0.846667 0.850000 0.853333 0.856667 0.860000 0.863333 0.866667 0.870000 0.873333 0.876667 0.880000 0.883333 0.886667 0.890000 0.893333 0.896667 0.900000 0.903333 0.906667 0.910000 0.913333 0.916667 0.920000 0.923333 0.926667 0.930000 0.933333 0.936667 0.940000 0.943333 0.946667 0.950000 0.953333 0.956667 0.960000 0.963333 0.966667 0.970000 0.973333 0.976667 0.980000 0.983333 0.986667 0.990000 0.993333 0.996667 1.000000 
Y_COORDINATES 301 double
0.000000 0.003333 0.006667 0.010000 0.013333 0.016667 0.020000 0.023333 0.026667 0.030000 0.033333 0.036667 0.040000 0.043333 0.046667 0.050000 0.053333 0.056667 0.060000 0.063333 0.066667 0.070000 0.073333 0.076667 0.080000 0.083333 0.086667 0.090000 0.093333 0.096667 0.100000 0.103333 0.106667 0.110000 0.113333 0.116667 0.120000 0.123333 0.126667 0.130000 0.133333 0.136667 0.140000 0.143333 0.146667 0.150000 0.153333 0.156667 0.160000 0.163333 0.166667 0.170000 0.173333 0.176667 0.180000 0.183333 0.186667 0.190000 0.193333 0.196667 0.200000 0.203333 0.206667 0.210000 0.213333 0.216667 0.220000 0.223333 0.226667 0.230000 0.233333 0.236667 0.240000 0.243333 0.246667 0.250000 0.253333 0.256667 0.260000 0.263333 0.266667 0.270000 0.273333 0.276667 0.280000 0.283333 0.286667 0.290000 0.293333 0.296667 0.300000 0.303333 0.306667 0.310000 0.313333 0.316667 0.320000 0.323333 0.326667 0.330000 0.333333 0.336667 0.340000 0.343333 0.346667 0.350000 0.353333 0.356667 0.360000 0.363333 0.366667 0.370000 0.373333 0.376667 0.380000 0.383333 0.386667 0.390000 0.393333 0.396667 0.400000 0.403333 0.406667 0.410000 0.413333 0.416667 0.420000 0.423333 0.426667 0.430000 0.433333 0.436667 0.440000 0.443333 0.446667 0.450000 0.453333 0.456667 0.460000 0.463333 0.466667 0.470000 0.473333 0.476667 0.480000 0.483333 0.486667 0.490000 0.493333 0.496667 0.500000 0.503333 0.506667 0.510000 0.513333 0.516667 0.520000 0.523333 0.526667 0.530000 0.533333 0.536667 0.540000 0.543333 0.546667 0.550000 0.553333 0.556667 0.560000 0.563333 0.566667 0.570000 0.573333 0.576667 0.580000 0.583333 0.586667 0.590000 0.593333 0.596667 0.600000 0.603333 0.606667 0.610000 0.613333 0.616667 0.620000 0.623333 0.626667 0.630000 0.633333 0.636667 0.640000 0.643333 0.646667 0.650000 0.653333 0.656667 0.660000 0.663333 0.666667 0.670000 0.673333 0.676667 0.680000 0.683333 0.686667 0.690000 0.693333 0.696667 0.700000 0.703333 0.706667 0.710000 0.713333 0.716667 0.720000 0.723333 0.726667 0.730000 0.733333 0.736667 0.740000 0.743333 0.746667 0.750000 0.753333 0.756667 0.760000 0.763333 0.766667 0.770000 0.773333 0.776667 0.780000 0.783333 0.786667 0.790000 0.793333 0.796667 0.800000 0.803333 0.806667 0.810000 0.813333 0.816667 0.820000 0.823333 0.826667 0.830000 0.833333 0.836667 0.840000 0.843333 0.846667 0.850000 0.853333 0.856667 0.860000 0.863333 0.866667 0.870000 0.873333 0.876667 0.880000 0.883333 0.886667 0.890000 0.893333 0.896667 0.900000 0.903333 0.906667 0.910000 0.913333 0.916667 0.920000 0.923333 0.926667 0.930000 0.933333 0.936667 0.940000 0.943333 0.946667 0.950000 0.953333 0.956667 0.960000 0.963333 0.966667 0.970000 0.973333 0.976667 0.980000 0.983333 0.986667 0.990000 0.993333 0.996667 1.000000 
Z_COORDINATES 1 double
0
POINT_DATA 90601 
FIELD FieldData 1 
Concentração 1 90601 double 
0.000000 
0.000000 
0.000000 
0.000000 
0.000000 
0.000000 
0.000000 
0.000000 
0.000000 
0.000000 
0.000000 
0.000000 
0.000000 
0.000000 
0.000000 
0.000000 
0.000000 
0.000000 
0.000000 
0.000000 
0.000000 
0.000000 
0.000000 
0.000000 
0.000000 
0.000000 
0.000000 
0.000000 
0.000000 
0.000000 
0.000000 
0.000000 
0.000000 
0.000000 
0.000000 
0.000000 
0.000000 
0.000000 
0.000000 
0.000000 
0.000000 
0.000000 
0.000000 
0.000000 
0.000000 
0.000000 
0.000000 
0.000000 
0.000000 
0.000000 
0.000000 
0.000000 
0.000000 
0.000000 
0.000000 
0.000000 
0.000000 
0.000000 
0.000000 
0.000000 
0.000000 
0.000000 
0.000000 
0.000000 
0.000000 
0.000000 
0.000000 
0.000000 
0.000000 
0.000000 
0.000000 
0.000000 
0.000000 
0.000000 
0.000000 
0.000000 
0.000000 
0.000000 
0.000000 
0.000000 
0.000000 
0.000000 
0.000000 
0.000000 
0.000000 
0.000000 
0.000000 
0.000000 
0.000000 
0.000000 
0.000000 
0.000000 
0.000000 
0.000000 
0.000000 
0.000000 
0.000000 
0.000000 
0.000000 
0.000000 
0.000000 
0.000000 
0.000000 
0.000000 
0.000001 
0.000001 
0.000001 
0.000001 
0.000001 
0.000001 
0.000001 
0.000001 
0.000001 
0.000001 
0.000001 
0.000001 
0.000001 
0.000001 
0.000001 
0.000001 
0.000002 
0.000002 
0.000002 
0.000002 
0.000002 
0.000002 
0.000002 
0.000002 
0.000003 
0.000003 
0.000003 
0.000003 
0.000003 
0.000003 
0.000004 
0.000004 
0.000004 
0.000004 
0.000005 
0.000005 
0.000005 
0.000005 
0.000006 
0.000006 
0.000007 
0.000007 
0.000007 
0.000008 
0.000008 
0.000009 
0.000009 
0.000010 
0.000010 
0.000011 
0.000011 
0.000012 
0.000012 
0.000013 
0.000014 
0.000014 
0.000015 
0.000016 
0.000017 
0.000018 
0.000018 
0.000019 
0.000020 
0.000021 
0.000022 
0.000023 
0.000024 
0.000025 
0.000027 
0.000028 
0.000029 
0.000030 
0.000032 
0.000033 
0.000035 
0.000036 
0.000038 
0.000039 
0.000041 
0.000043 
0.000044 
0.000046 
0.000048 
0.000050 
0.000052 
0.000054 
0.000056 
0.000058 
0.000060 
0.000062 
0.000065 
0.000067 
0.000070 
0.000072 
0.000075 
0.000077 
0.000080 
0.000083 
0.000085 
0.000088 
0.000091 
0.000094 
0.000097 
0.000100 
0.000103 
0.000106 
0.000110 
0.000113 
0.000116 
0.000120 
0.000123 
0.000127 
0.000130 
0.000134 
0.000137 
0.000141 
0.000145 
0.000149 
0.000153 
0.000156 
0.000160 
0.000164 
0.000168 
0.000172 
0.000176 
0.000181 
0.000185 
0.000189 
0.000193 
0.000197 
0.000201 
0.000206 
0.000210 
0.000214 
0.000218 
0.000223 
0.000227 
0.000231 
0.000236 
0.000240 
0.000244 
0.000249 
0.000253 
0.000257 
0.000261 
0.000266 
0.000270 
0.000274 
0.000278 
0.000282 
0.000286 
0.000290 
0.000294 
0.000298 
0.000302 
0.000306 
0.000310 
0.000314 
0.000318 
0.000321 
0.000325 
0.000328 
0.000332 
0.000335 
0.000339 
0.000342 
0.000345 
0.000348 
0.000351 
0.000354 
0.000357 
0.000360 
0.000363 
0.000365 
0.000368 
0.000370 
0.000372 
0.000375 
0.000377 
0.000379 
0.000381 
0.000383 
0.000384 
0.000386 
0.000387 
0.000389 
0.000390 
0.000391 
0.000392 
0.000393 
0.000394 
0.000395 
0.000395 
0.000396 
0.000396 
0.000396 
0.000396 
0.000000 
0.000000 
0.000000 
0.000000 
0.000000 
0.000000 
0.000000 
0.000000 
0.000000 
0.000000 
0.000000 
0.000000 
0.000000 
0.000000 
0.000000 
0.000000 
0.000000 
0.000000 
0.000000 
0.000000 
0.000000 
0.000000 
0.000000 
0.000000 
0.000000 
0.000000 
0.000000 
0.000000 
0.000000 
0.000000 
0.000000 
0.000000 
0.000000 
0.000000 
0.000000 
0.000000 
0.000000 
0.000000 
0.000000 
0.000000 
0.000000 
0.000000 
0.000000 
0.000000 
0.000000 
0.000000 
0.000000 
0.000000 
0.000000 
0.000000 
0.000000 
0.000000 
0.000000 
0.000000 
0.000000 
0.000000 
0.000000 
0.000000 
0.000000 
0.000000 
0.000000 
0.000000 
0.000000 
0.000000 
0.000000 
0.000000 
0.000000 
0.000000 
0.000000 
0.000000 
0.000000 
0.000000 
0.000000 
0.000000 
0.000000 
0.000000 
0.000000 
0.000000 
0.000000 
0.000000 
0.000000 
0.000000 
0.000000 
0.000000 
0.000000 
0.000000 
0.000000 
0.000000 
0.000000 
0.000000 
0.000000 
0.000000 
0.000000 
0.000000 
0.000000 
0.000001 
0.000001 
0.000001 
0.000001 
0.000001 
0.000001 
0.000001 
0.000001 
0.000001 
0.000001 
0.000001 
0.000001 
0.000001 
0.000001 
0.000001 
0.000002 
0.000002 
0.000002 
0.000002 
0.000002 
0.000002 
0.000002 
0.000002 
0.000003 
0.000003 
0.000003 
0.000003 
0.000003 
0.000004 
0.000004 
0.000004 
0.000004 
0.000005 
0.000005 
0.000005 
0.000006 
0.000006 
0.000006 
0.000007 
0.000007 
0.000008 
0.000008 
0.000009 
0.000009 
0.000010 
0.000010 
0.000011 
0.000012 
0.000012 
0.000013 
0.000014 
0.000015 
0.000015 
0.000016 
0.000017 
0.000018 
0.000019 
0.000020 
0.000021 
0.000022 
0.000024 
0.000025 
0.000026 
0.000028 
0.000029 
0.000030 
0.000032 
0.000034 
0.000035 
0.000037 
0.000039 
0.000041 
0.000043 
0.000045 
0.000047 
0.000049 
0.000051 
0.000054 
0.000056 
0.000059 
0.000061 
0.000064 
0.000067 
0.000070 
0.000073 
0.000076 
0.000079 
0.000082 
0.000086 
0.000089 
0.000093 
0.000096 
0.000100 
0.000104 
0.000108 
0.000112 
0.000117 
0.000121 
0.000125 
0.000130 
0.000135 
0.000140 
0.000145 
0.000150 
0.000155 
0.000160 
0.000166 
0.000171 
0.000177 
0.000183 
0.000189 
0.000195 
0.000201 
0.000207 
0.000214 
0.000220 
0.000227 
0.000233 
0.000240 
0.000247 
0.000254 
0.000261 
0.000269 
0.000276 
0.000283 
0.000291 
0.000299 
0.000306 
0.000314 
0.000322 
0.000330 
0.000338 
0.000346 
0.000354 
0.000362 
0.000371 
0.000379 
0.000387 
0.000396 
0.000404 
0.000413 
0.000421 
0.000430 
0.000439 
0.000447 
0.000456 
0.000464 
0.000473 
0.000482 
0.000490 
0.000499 
0.000507 
0.000516 
0.000525 
0.000533 
0.000541 
0.000550 
0.000558 
0.000566 
0.000575 
0.000583 
0.000591 
0.000599 
0.000607 
0.000614 
0.000622 
0.000630 
0.000637 
0.000645 
0.000652 
0.000659 
0.000666 
0.000673 
0.000680 
0.000686 
0.000692 
0.000699 
0.000705 
0.000711 
0.000717 
0.000722 
0.000727 
0.000733 
0.000738 
0.000743 
0.000747 
0.000752 
0.000756 
0.000760 
0.000764 
0.000767 
0.000771 
0.000774 
0.000777 
0.000780 
0.000782 
0.000785 
0.000787 
0.000789 
0.000790 
0.000792 
0.000793 
0.000794 
0.000794 
0.000795 
0.000795 
0.000000 
0.000000 
0.000000 
0.000000 
0.000000 
0.000000 
0.000000 
0.000000 
0.000000 
0.000000 
0.000000 
0.000000 
0.000000 
0.000000 
0.000000 
0.000000 
0.000000 
0.000000 
0.000000 
0.000000 
0.000000 
0.000000 
0.000000 
0.000000 
0.000000 
0.000000 
0.000000 
0.000000 
0.000000 
0.000000 
0.000000 
0.000000 
0.000000 
0.000000 
0.000000 
0.000000 
0.000000 
0.000000 
0.000000 
0.000000 
0.000000 
0.000000 
0.000000 
0.000000 
0.000000 
0.000000 
0.000000 
0.000000 
0.000000 
0.000000 
0.000000 
0.000000 
0.000000 
0.000000 
0.000000 
0.000000 
0.000000 
0.000000 
0.000000 
0.000000 
0.000000 
0.000000 
0.000000 
0.000000 
0.000000 
0.000000 
0.000000 
0.000000 
0.000000 
0.000000 
0.000000 
0.000000 
0.000000 
0.000000 
0.000000 
0.000000 
0.000000 
0.000000 
0.000000 
0.000000 
0.000000 
0.000000 
0.000000 
0.000000 
0.000000 
0.000000 
0.000000 
0.000000 
0.000000 
0.000000 
0.000001 
0.000001 
0.000001 
0.000001 
0.000001 
0.000001 
0.000001 
0.000001 
0.000001 
0.000001 
0.000001 
0.000001 
0.000001 
0.000001 
0.000002 
0.000002 
0.000002 
0.000002 
0.000002 
0.000002 
0.000002 
0.000003 
0.000003 
0.000003 
0.000003 
0.000003 
0.000004 
0.000004 
0.000004 
0.000004 
0.000005 
0.000005 
0.000005 
0.000006 
0.000006 
0.000006 
0.000007 
0.000007 
0.000008 
0.000008 
0.000009 
0.000009 
0.000010 
0.000010 
0.000011 
0.000012 
0.000012 
0.000013 
0.000014 
0.000015 
0.000016 
0.000017 
0.000018 
0.000019 
0.000020 
0.000021 
0.000022 
0.000023 
0.000025 
0.000026 
0.000027 
0.000029 
0.000031 
0.000032 
0.000034 
0.000036 
0.000038 
0.000040 
0.000042 
0.000044 
0.000046 
0.000048 
0.000051 
0.000053 
0.000056 
0.000059 
0.000062 
0.000064 
0.000068 
0.000071 
0.000074 
0.000077 
0.000081 
0.000085 
0.000089 
0.000092 
0.000097 
0.000101 
0.000105 
0.000110 
0.000114 
0.000119 
0.000124 
0.000129 
0.000135 
0.000140 
0.000146 
0.000151 
0.000157 
0.000164 
0.000170 
0.000176 
0.000183 
0.000190 
0.000197 
0.000204 
0.000211 
0.000219 
0.000226 
0.000234 
0.000242 
0.000251 
0.000259 
0.000268 
0.000276 
0.000285 
0.000294 
0.000304 
0.000313 
0.000323 
0.000333 
0.000343 
0.000353 
0.000363 
0.000373 
0.000384 
0.000395 
0.000406 
0.000417 
0.000428 
0.000439 
0.000451 
0.000463 
0.000474 
0.000486 
0.000498 
0.000510 
0.000522 
0.000535 
0.000547 
0.000560 
0.000572 
0.000585 
0.000598 
0.000610 
0.000623 
0.000636 
0.000649 
0.000662 
0.000675 
0.000688 
0.000701 
0.000714 
0.000727 
0.000740 
0.000753 
0.000766 
0.000778 
0.000791 
0.000804 
0.000817 
0.000829 
0.000842 
0.000854 
0.000867 
0.000879 
0.000891 
0.000903 
0.000915 
0.000927 
0.000938 
0.000950 
0.000961 
0.000972 
0.000983 
0.000994 
0.001004 
0.001015 
0.001025 
0.001034 
0.001044 
0.001054 
0.001063 
0.001072 
0.001080 
0.001089 
0.001097 
0.001105 
0.001112 
0.001119 
0.001126 
0.001133 
0.001140 
0.001146 
0.001151 
0.001157 
0.001162 
0.001167 
0.001171 
0.001175 
0.001179 
0.001183 
0.001186 
0.001189 
0.001191 
0.001193 
0.001195 
0.001196 
0.001197 
0.001198 
0.001199 
0.000000 
0.000000 
0.000000 
0.000000 
0.000000 
0.000000 
0.000000 
0.000000 
0.000000 
0.000000 
0.000000 
0.000000 
0.000000 
0.000000 
0.000000 
0.000000 
0.000000 
0.000000 
0.000000 
0.000000 
0.000000 
0.000000 
0.000000 
0.000000 
0.000000 
0.000000 
0.000000 
0.000000 
0.000000 
0.000000 
0.000000 
0.000000 
0.000000 
0.000000 
0.000000 
0.000000 
0.000000 
0.000000 
0.000000 
0.000000 
0.000000 
0.000000 
0.000000 
0.000000 
0.000000 
0.000000 
0.000000 
0.000000 
0.000000 
0.000000 
0.000000 
0.000000 
0.000000 
0.000000 
0.000000 
0.000000 
0.000000 
0.000000 
0.000000 
0.000000 
0.000000 
0.000000 
0.000000 
0.000000 
0.000000 
0.000000 
0.000000 
0.000000 
0.000000 
0.000000 
0.000000 
0.000000 
0.000000 
0.000000 
0.000000 
0.000000 
0.000000 
0.000000 
0.000000 
0.000000 
0.000000 
0.000000 
0.000000 
0.000000 
0.000000 
0.000000 
0.000001 
0.000001 
0.000001 
0.000001 
0.000001 
0.000001 
0.000001 
0.000001 
0.000001 
0.000001 
0.000001 
0.000001 
0.000001 
0.000001 
0.000002 
0.000002 
0.000002 
0.000002 
0.000002 
0.000002 
0.000002 
0.000003 
0.000003 
0.000003 
0.000003 
0.000003 
0.000004 
0.000004 
0.000004 
0.000004 
0.000005 
0.000005 
0.000005 
0.000006 
0.000006 
0.000007 
0.000007 
0.000008 
0.000008 
0.000009 
0.000009 
0.000010 
0.000010 
0.000011 
0.000012 
0.000012 
0.000013 
0.000014 
0.000015 
0.000016 
0.000017 
0.000018 
0.000019 
0.000020 
0.000021 
0.000023 
0.000024 
0.000025 
0.000027 
0.000028 
0.000030 
0.000032 
0.000033 
0.000035 
0.000037 
0.000039 
0.000041 
0.000043 
0.000046 
0.000048 
0.000051 
0.000053 
0.000056 
0.000059 
0.000062 
0.000065 
0.000069 
0.000072 
0.000075 
0.000079 
0.000083 
0.000087 
0.000091 
0.000095 
0.000100 
0.000104 
0.000109 
0.000114 
0.000119 
0.000125 
0.000130 
0.000136 
0.000142 
0.000148 
0.000154 
0.000161 
0.000167 
0.000174 
0.000181 
0.000189 
0.000196 
0.000204 
0.000212 
0.000220 
0.000229 
0.000238 
0.000246 
0.000256 
0.000265 
0.000275 
0.000285 
0.000295 
0.000305 
0.000316 
0.000326 
0.000337 
0.000349 
0.000360 
0.000372 
0.000384 
0.000396 
0.000409 
0.000422 
0.000435 
0.000448 
0.000461 
0.000475 
0.000489 
0.000503 
0.000517 
0.000532 
0.000546 
0.000561 
0.000576 
0.000591 
0.000607 
0.000622 
0.000638 
0.000654 
0.000670 
0.000687 
0.000703 
0.000719 
0.000736 
0.000753 
0.000770 
0.000787 
0.000804 
0.000821 
0.000838 
0.000855 
0.000873 
0.000890 
0.000907 
0.000925 
0.000942 
0.000960 
0.000977 
0.000994 
0.001012 
0.001029 
0.001046 
0.001064 
0.001081 
0.001098 
0.001115 
0.001131 
0.001148 
0.001165 
0.001181 
0.001197 
0.001213 
0.001229 
0.001245 
0.001261 
0.001276 
0.001291 
0.001306 
0.001320 
0.001335 
0.001349 
0.001363 
0.001376 
0.001389 
0.001402 
0.001415 
0.001427 
0.001439 
0.001451 
0.001462 
0.001473 
0.001483 
0.001493 
0.001503 
0.001513 
0.001521 
0.001530 
0.001538 
0.001546 
0.001553 
0.001560 
0.001567 
0.001573 
0.001578 
0.001583 
0.001588 
0.001592 
0.001596 
0.001599 
0.001602 
0.001604 
0.001606 
0.001608 
0.001608 
0.001609 
0.000000 
0.000000 
0.000000 
0.000000 
0.000000 
0.000000 
0.000000 
0.000000 
0.000000 
0.000000 
0.000000 
0.000000 
0.000000 
0.000000 
0.000000 
0.000000 
0.000000 
0.000000 
0.000000 
0.000000 
0.000000 
0.000000 
0.000000 
0.000000 
0.000000 
0.000000 
0.000000 
0.000000 
0.000000 
0.000000 
0.000000 
0.000000 
0.000000 
0.000000 
0.000000 
0.000000 
0.000000 
0.000000 
0.000000 
0.000000 
0.000000 
0.000000 
0.000000 
0.000000 
0.000000 
0.000000 
0.000000 
0.000000 
0.000000 
0.000000 
0.000000 
0.000000 
0.000000 
0.000000 
0.000000 
0.000000 
0.000000 
0.000000 
0.000000 
0.000000 
0.000000 
0.000000 
0.000000 
0.000000 
0.000000 
0.000000 
0.000000 
0.000000 
0.000000 
0.000000 
0.000000 
0.000000 
0.000000 
0.000000 
0.000000 
0.000000 
0.000000 
0.000000 
0.000000 
0.000000 
0.000000 
0.000000 
0.000000 
0.000001 
0.000001 
0.000001 
0.000001 
0.000001 
0.000001 
0.000001 
0.000001 
0.000001 
0.000001 
0.000001 
0.000001 
0.000001 
0.000001 
0.000002 
0.000002 
0.000002 
0.000002 
0.000002 
0.000002 
0.000002 
0.000003 
0.000003 
0.000003 
0.000003 
0.000003 
0.000004 
0.000004 
0.000004 
0.000005 
0.000005 
0.000005 
0.000006 
0.000006 
0.000006 
0.000007 
0.000007 
0.000008 
0.000008 
0.000009 
0.000010 
0.000010 
0.000011 
0.000012 
0.000012 
0.000013 
0.000014 
0.000015 
0.000016 
0.000017 
0.000018 
0.000019 
0.000020 
0.000021 
0.000023 
0.000024 
0.000026 
0.000027 
0.000029 
0.000030 
0.000032 
0.000034 
0.000036 
0.000038 
0.000040 
0.000042 
0.000045 
0.000047 
0.000050 
0.000052 
0.000055 
0.000058 
0.000061 
0.000064 
0.000068 
0.000071 
0.000075 
0.000079 
0.000083 
0.000087 
0.000091 
0.000096 
0.000100 
0.000105 
0.000110 
0.000116 
0.000121 
0.000127 
0.000133 
0.000139 
0.000145 
0.000151 
0.000158 
0.000165 
0.000172 
0.000180 
0.000188 
0.000196 
0.000204 
0.000212 
0.000221 
0.000230 
0.000239 
0.000249 
0.000259 
0.000269 
0.000279 
0.000290 
0.000301 
0.000312 
0.000324 
0.000336 
0.000348 
0.000360 
0.000373 
0.000386 
0.000400 
0.000413 
0.000427 
0.000442 
0.000456 
0.000471 
0.000486 
0.000502 
0.000518 
0.000534 
0.000550 
0.000567 
0.000584 
0.000601 
0.000618 
0.000636 
0.000654 
0.000673 
0.000691 
0.000710 
0.000729 
0.000748 
0.000768 
0.000787 
0.000807 
0.000827 
0.000848 
0.000868 
0.000889 
0.000910 
0.000931 
0.000952 
0.000973 
0.000994 
0.001016 
0.001038 
0.001059 
0.001081 
0.001103 
0.001125 
0.001147 
0.001168 
0.001190 
0.001212 
0.001234 
0.001256 
0.001278 
0.001300 
0.001322 
0.001343 
0.001365 
0.001386 
0.001407 
0.001429 
0.001450 
0.001470 
0.001491 
0.001511 
0.001532 
0.001552 
0.001571 
0.001591 
0.001610 
0.001629 
0.001648 
0.001666 
0.001684 
0.001702 
0.001719 
0.001736 
0.001753 
0.001769 
0.001785 
0.001800 
0.001815 
0.001830 
0.001844 
0.001858 
0.001871 
0.001884 
0.001896 
0.001908 
0.001919 
0.001930 
0.001940 
0.001950 
0.001959 
0.001967 
0.001975 
0.001983 
0.001990 
0.001996 
0.002002 
0.002008 
0.002012 
0.002016 
0.002020 
0.002023 
0.002025 
0.002027 
0.002028 
0.002029 
0.000000 
0.000000 
0.000000 
0.000000 
0.000000 
0.000000 
0.000000 
0.000000 
0.000000 
0.000000 
0.000000 
0.000000 
0.000000 
0.000000 
0.000000 
0.000000 
0.000000 
0.000000 
0.000000 
0.000000 
0.000000 
0.000000 
0.000000 
0.000000 
0.000000 
0.000000 
0.000000 
0.000000 
0.000000 
0.000000 
0.000000 
0.000000 
0.000000 
0.000000 
0.000000 
0.000000 
0.000000 
0.000000 
0.000000 
0.000000 
0.000000 
0.000000 
0.000000 
0.000000 
0.000000 
0.000000 
0.000000 
0.000000 
0.000000 
0.000000 
0.000000 
0.000000 
0.000000 
0.000000 
0.000000 
0.000000 
0.000000 
0.000000 
0.000000 
0.000000 
0.000000 
0.000000 
0.000000 
0.000000 
0.000000 
0.000000 
0.000000 
0.000000 
0.000000 
0.000000 
0.000000 
0.000000 
0.000000 
0.000000 
0.000000 
0.000000 
0.000000 
0.000000 
0.000000 
0.000000 
0.000001 
0.000001 
0.000001 
0.000001 
0.000001 
0.000001 
0.000001 
0.000001 
0.000001 
0.000001 
0.000001 
0.000001 
0.000001 
0.000001 
0.000002 
0.000002 
0.000002 
0.000002 
0.000002 
0.000002 
0.000002 
0.000003 
0.000003 
0.000003 
0.000003 
0.000003 
0.000004 
0.000004 
0.000004 
0.000005 
0.000005 
0.000005 
0.000006 
0.000006 
0.000006 
0.000007 
0.000007 
0.000008 
0.000008 
0.000009 
0.000010 
0.000010 
0.000011 
0.000012 
0.000013 
0.000013 
0.000014 
0.000015 
0.000016 
0.000017 
0.000018 
0.000019 
0.000021 
0.000022 
0.000023 
0.000025 
0.000026 
0.000028 
0.000029 
0.000031 
0.000033 
0.000035 
0.000037 
0.000039 
0.000041 
0.000044 
0.000046 
0.000049 
0.000052 
0.000055 
0.000058 
0.000061 
0.000064 
0.000067 
0.000071 
0.000075 
0.000079 
0.000083 
0.000087 
0.000092 
0.000096 
0.000101 
0.000106 
0.000112 
0.000117 
0.000123 
0.000129 
0.000135 
0.000141 
0.000148 
0.000155 
0.000162 
0.000169 
0.000177 
0.000185 
0.000193 
0.000202 
0.000211 
0.000220 
0.000229 
0.000239 
0.000249 
0.000259 
0.000270 
0.000281 
0.000292 
0.000304 
0.000316 
0.000328 
0.000341 
0.000354 
0.000367 
0.000381 
0.000395 
0.000410 
0.000424 
0.000440 
0.000455 
0.000471 
0.000487 
0.000504 
0.000521 
0.000539 
0.000556 
0.000574 
0.000593 
0.000612 
0.000631 
0.000650 
0.000670 
0.000691 
0.000711 
0.000732 
0.000753 
0.000775 
0.000797 
0.000819 
0.000842 
0.000864 
0.000888 
0.000911 
0.000935 
0.000958 
0.000983 
0.001007 
0.001032 
0.001057 
0.001082 
0.001107 
0.001132 
0.001158 
0.001184 
0.001210 
0.001236 
0.001262 
0.001288 
0.001314 
0.001341 
0.001367 
0.001394 
0.001420 
0.001447 
0.001474 
0.001500 
0.001527 
0.001553 
0.001579 
0.001606 
0.001632 
0.001658 
0.001684 
0.001710 
0.001735 
0.001761 
0.001786 
0.001811 
0.001836 
0.001860 
0.001884 
0.001908 
0.001932 
0.001955 
0.001978 
0.002000 
0.002023 
0.002044 
0.002066 
0.002087 
0.002107 
0.002127 
0.002147 
0.002166 
0.002185 
0.002203 
0.002220 
0.002237 
0.002254 
0.002270 
0.002285 
0.002300 
0.002314 
0.002328 
0.002341 
0.002353 
0.002365 
0.002376 
0.002386 
0.002396 
0.002405 
0.002413 
0.002421 
0.002428 
0.002435 
0.002440 
0.002445 
0.002450 
0.002453 
0.002456 
0.002458 
0.002460 
0.002460 
0.000000 
0.000000 
0.000000 
0.000000 
0.000000 
0.000000 
0.000000 
0.000000 
0.000000 
0.000000 
0.000000 
0.000000 
0.000000 
0.000000 
0.000000 
0.000000 
0.000000 
0.000000 
0.000000 
0.000000 
0.000000 
0.000000 
0.000000 
0.000000 
0.000000 
0.000000 
0.000000 
0.000000 
0.000000 
0.000000 
0.000000 
0.000000 
0.000000 
0.000000 
0.000000 
0.000000 
0.000000 
0.000000 
0.000000 
0.000000 
0.000000 
0.000000 
0.000000 
0.000000 
0.000000 
0.000000 
0.000000 
0.000000 
0.000000 
0.000000 
0.000000 
0.000000 
0.000000 
0.000000 
0.000000 
0.000000 
0.000000 
0.000000 
0.000000 
0.000000 
0.000000 
0.000000 
0.000000 
0.000000 
0.000000 
0.000000 
0.000000 
0.000000 
0.000000 
0.000000 
0.000000 
0.000000 
0.000000 
0.000000 
0.000000 
0.000000 
0.000000 
0.000000 
0.000001 
0.000001 
0.000001 
0.000001 
0.000001 
0.000001 
0.000001 
0.000001 
0.000001 
0.000001 
0.000001 
0.000001 
0.000001 
0.000001 
0.000002 
0.000002 
0.000002 
0.000002 
0.000002 
0.000002 
0.000002 
0.000003 
0.000003 
0.000003 
0.000003 
0.000004 
0.000004 
0.000004 
0.000004 
0.000005 
0.000005 
0.000005 
0.000006 
0.000006 
0.000007 
0.000007 
0.000008 
0.000008 
0.000009 
0.000009 
0.000010 
0.000011 
0.000012 
0.000012 
0.000013 
0.000014 
0.000015 
0.000016 
0.000017 
0.000018 
0.000019 
0.000020 
0.000022 
0.000023 
0.000025 
0.000026 
0.000028 
0.000029 
0.000031 
0.000033 
0.000035 
0.000037 
0.000039 
0.000042 
0.000044 
0.000047 
0.000049 
0.000052 
0.000055 
0.000058 
0.000062 
0.000065 
0.000069 
0.000072 
0.000076 
0.000080 
0.000085 
0.000089 
0.000094 
0.000099 
0.000104 
0.000109 
0.000115 
0.000121 
0.000127 
0.000133 
0.000139 
0.000146 
0.000153 
0.000161 
0.000168 
0.000176 
0.000184 
0.000193 
0.000202 
0.000211 
0.000220 
0.000230 
0.000240 
0.000251 
0.000262 
0.000273 
0.000284 
0.000296 
0.000309 
0.000321 
0.000334 
0.000348 
0.000362 
0.000376 
0.000390 
0.000406 
0.000421 
0.000437 
0.000453 
0.000470 
0.000487 
0.000505 
0.000523 
0.000541 
0.000560 
0.000579 
0.000599 
0.000619 
0.000640 
0.000661 
0.000683 
0.000704 
0.000727 
0.000750 
0.000773 
0.000796 
0.000820 
0.000845 
0.000869 
0.000894 
0.000920 
0.000946 
0.000972 
0.000999 
0.001026 
0.001053 
0.001081 
0.001109 
0.001137 
0.001166 
0.001194 
0.001224 
0.001253 
0.001283 
0.001312 
0.001342 
0.001373 
0.001403 
0.001434 
0.001464 
0.001495 
0.001526 
0.001557 
0.001589 
0.001620 
0.001651 
0.001682 
0.001714 
0.001745 
0.001776 
0.001808 
0.001839 
0.001870 
0.001901 
0.001932 
0.001962 
0.001993 
0.002023 
0.002053 
0.002083 
0.002113 
0.002142 
0.002171 
0.002200 
0.002229 
0.002257 
0.002285 
0.002312 
0.002339 
0.002365 
0.002392 
0.002417 
0.002442 
0.002467 
0.002491 
0.002515 
0.002538 
0.002560 
0.002582 
0.002603 
0.002624 
0.002644 
0.002663 
0.002682 
0.002700 
0.002718 
0.002734 
0.002750 
0.002765 
0.002780 
0.002794 
0.002807 
0.002819 
0.002830 
0.002841 
0.002851 
0.002860 
0.002868 
0.002876 
0.002882 
0.002888 
0.002893 
0.002897 
0.002901 
0.002903 
0.002905 
0.002906 
0.000000 
0.000000 
0.000000 
0.000000 
0.000000 
0.000000 
0.000000 
0.000000 
0.000000 
0.000000 
0.000000 
0.000000 
0.000000 
0.000000 
0.000000 
0.000000 
0.000000 
0.000000 
0.000000 
0.000000 
0.000000 
0.000000 
0.000000 
0.000000 
0.000000 
0.000000 
0.000000 
0.000000 
0.000000 
0.000000 
0.000000 
0.000000 
0.000000 
0.000000 
0.000000 
0.000000 
0.000000 
0.000000 
0.000000 
0.000000 
0.000000 
0.000000 
0.000000 
0.000000 
0.000000 
0.000000 
0.000000 
0.000000 
0.000000 
0.000000 
0.000000 
0.000000 
0.000000 
0.000000 
0.000000 
0.000000 
0.000000 
0.000000 
0.000000 
0.000000 
0.000000 
0.000000 
0.000000 
0.000000 
0.000000 
0.000000 
0.000000 
0.000000 
0.000000 
0.000000 
0.000000 
0.000000 
0.000000 
0.000000 
0.000000 
0.000000 
0.000001 
0.000001 
0.000001 
0.000001 
0.000001 
0.000001 
0.000001 
0.000001 
0.000001 
0.000001 
0.000001 
0.000001 
0.000001 
0.000001 
0.000002 
0.000002 
0.000002 
0.000002 
0.000002 
0.000002 
0.000003 
0.000003 
0.000003 
0.000003 
0.000003 
0.000004 
0.000004 
0.000004 
0.000005 
0.000005 
0.000005 
0.000006 
0.000006 
0.000006 
0.000007 
0.000007 
0.000008 
0.000008 
0.000009 
0.000010 
0.000010 
0.000011 
0.000012 
0.000013 
0.000014 
0.000014 
0.000015 
0.000016 
0.000018 
0.000019 
0.000020 
0.000021 
0.000023 
0.000024 
0.000026 
0.000027 
0.000029 
0.000031 
0.000033 
0.000035 
0.000037 
0.000039 
0.000041 
0.000044 
0.000046 
0.000049 
0.000052 
0.000055 
0.000058 
0.000061 
0.000065 
0.000068 
0.000072 
0.000076 
0.000081 
0.000085 
0.000089 
0.000094 
0.000099 
0.000105 
0.000110 
0.000116 
0.000122 
0.000128 
0.000135 
0.000141 
0.000148 
0.000156 
0.000163 
0.000171 
0.000180 
0.000188 
0.000197 
0.000206 
0.000216 
0.000226 
0.000236 
0.000247 
0.000258 
0.000269 
0.000281 
0.000293 
0.000306 
0.000319 
0.000332 
0.000346 
0.000361 
0.000376 
0.000391 
0.000406 
0.000423 
0.000439 
0.000456 
0.000474 
0.000492 
0.000511 
0.000530 
0.000549 
0.000569 
0.000590 
0.000611 
0.000632 
0.000654 
0.000677 
0.000700 
0.000723 
0.000747 
0.000771 
0.000796 
0.000822 
0.000848 
0.000874 
0.000901 
0.000929 
0.000957 
0.000985 
0.001014 
0.001043 
0.001073 
0.001103 
0.001133 
0.001164 
0.001195 
0.001227 
0.001259 
0.001292 
0.001324 
0.001358 
0.001391 
0.001425 
0.001459 
0.001493 
0.001528 
0.001563 
0.001598 
0.001633 
0.001668 
0.001704 
0.001740 
0.001776 
0.001812 
0.001848 
0.001884 
0.001920 
0.001956 
0.001992 
0.002029 
0.002065 
0.002101 
0.002137 
0.002173 
0.002209 
0.002244 
0.002280 
0.002315 
0.002350 
0.002385 
0.002420 
0.002454 
0.002488 
0.002521 
0.002555 
0.002587 
0.002620 
0.002652 
0.002683 
0.002715 
0.002745 
0.002775 
0.002805 
0.002834 
0.002862 
0.002890 
0.002917 
0.002944 
0.002970 
0.002995 
0.003019 
0.003043 
0.003066 
0.003089 
0.003110 
0.003131 
0.003151 
0.003170 
0.003189 
0.003206 
0.003223 
0.003239 
0.003254 
0.003268 
0.003281 
0.003293 
0.003305 
0.003315 
0.003325 
0.003333 
0.003341 
0.003348 
0.003353 
0.003358 
0.003362 
0.003365 
0.003367 
0.003368 
0.000000 
0.000000 
0.000000 
0.000000 
0.000000 
0.000000 
0.000000 
0.000000 
0.000000 
0.000000 
0.000000 
0.000000 
0.000000 
0.000000 
0.000000 
0.000000 
0.000000 
0.000000 
0.000000 
0.000000 
0.000000 
0.000000 
0.000000 
0.000000 
0.000000 
0.000000 