# vtk DataFile Version 3.0
results.vtk
ASCII
DATASET RECTILINEAR_GRID
DIMENSIONS 301 301 1
X_COORDINATES 301 double
0.000000 0.003333 0.006667 0.010000 0.013333 0.016667 0.020000 0.023333 0.026667 0.030000 0.033333 0.036667 0.040000 0.043333 0.046667 0.050000 0.053333 0.056667 0.060000 0.063333 0.066667 0.070000 0.073333 0.076667 0.080000 0.083333 0.086667 0.090000 0.093333 0.096667 0.100000 0.103333 0.106667 0.110000 0.113333 0.116667 0.120000 0.123333 0.126667 0.130000 0.133333 0.136667 0.140000 0.143333 0.146667 0.150000 0.153333 0.156667 0.160000 0.163333 0.166667 0.170000 0.173333 0.176667 0.180000 0.183333 0.186667 0.190000 0.193333 0.196667 0.200000 0.203333 0.206667 0.210000 0.213333 0.216667 0.220000 0.223333 0.226667 0.230000 0.233333 0.236667 0.240000 0.243333 0.246667 0.250000 0.253333 0.256667 0.260000 0.263333 0.266667 0.270000 0.273333 0.276667 0.280000 0.283333 0.286667 0.290000 0.293333 0.296667 0.300000 0.303333 0.306667 0.310000 0.313333 0.316667 0.320000 0.323333 0.326667 0.330000 0.333333 0.336667 0.340000 0.343333 0.346667 0.350000 0.353333 0.356667 0.360000 0.363333 0.366667 0.370000 0.373333 0.376667 0.380000 0.383333 0.386667 0.390000 0.393333 0.396667 0.400000 0.403333 0.406667 0.410000 0.413333 0.416667 0.420000 0.423333 0.426667 0.430000 0.433333 0.436667 0.440000 0.443333 0.446667 0.450000 0.453333 0.456667 0.460000 0.463333 0.466667 0.470000 0.473333 0.476667 0.480000 0.483333 0.486667 0.490000 0.493333 0.496667 0.500000 0.503333 0.506667 0.510000 0.513333 0.516667 0.520000 0.523333 0.526667 0.530000 0.533333 0.536667 0.540000 0.543333 0.546667 0.550000 0.553333 0.556667 0.560000 0.563333 0.566667 0.570000 0.573333 0.576667 0.580000 0.583333 0.586667 0.590000 0.593333 0.596667 0.600000 0.603333 0.606667 0.610000 0.613333 0.616667 0.620000 0.623333 0.626667 0.630000 0.633333 0.636667 0.640000 0.643333 0.646667 0.650000 0.653333 0.656667 0.660000 0.663333 0.666667 0.670000 0.673333 0.676667 0.680000 0.683333 0.686667 0.690000 0.693333 0.696667 0.700000 0.703333 0.706667 0.710000 0.713333 0.716667 0.720000 0.723333 0.726667 0.730000 0.733333 0.736667 0.740000 0.743333 0.746667 0.750000 0.753333 0.756667 0.760000 0.763333 0.766667 0.770000 0.773333 0.776667 0.780000 0.783333 0.786667 0.790000 0.793333 0.796667 0.800000 0.803333 0.806667 0.810000 0.813333 0.816667 0.820000 0.823333 0.826667 0.830000 0.833333 0.836667 0.840000 0.843333 0.846667 0.850000 0.853333 0.856667 0.860000 0.863333 0.866667 0.870000 0.873333 0.876667 0.880000 0.883333 0.886667 0.890000 0.893333 0.896667 0.900000 0.903333 0.906667 0.910000 0.913333 0.916667 0.920000 0.923333 0.926667 0.930000 0.933333 0.936667 0.940000 0.943333 0.946667 0.950000 0.953333 0.956667 0.960000 0.963333 0.966667 0.970000 0.973333 0.976667 0.980000 0.983333 0.986667 0.990000 0.993333 0.996667 1.000000 
Y_COORDINATES 301 double
0.000000 0.003333 0.006667 0.010000 0.013333 0.016667 0.020000 0.023333 0.026667 0.030000 0.033333 0.036667 0.040000 0.043333 0.046667 0.050000 0.053333 0.056667 0.060000 0.063333 0.066667 0.070000 0.073333 0.076667 0.080000 0.083333 0.086667 0.090000 0.093333 0.096667 0.100000 0.103333 0.106667 0.110000 0.113333 0.116667 0.120000 0.123333 0.126667 0.130000 0.133333 0.136667 0.140000 0.143333 0.146667 0.150000 0.153333 0.156667 0.160000 0.163333 0.166667 0.170000 0.173333 0.176667 0.180000 0.183333 0.186667 0.190000 0.193333 0.196667 0.200000 0.203333 0.206667 0.210000 0.213333 0.216667 0.220000 0.223333 0.226667 0.230000 0.233333 0.236667 0.240000 0.243333 0.246667 0.250000 0.253333 0.256667 0.260000 0.263333 0.266667 0.270000 0.273333 0.276667 0.280000 0.283333 0.286667 0.290000 0.293333 0.296667 0.300000 0.303333 0.306667 0.310000 0.313333 0.316667 0.320000 0.323333 0.326667 0.330000 0.333333 0.336667 0.340000 0.343333 0.346667 0.350000 0.353333 0.356667 0.360000 0.363333 0.366667 0.370000 0.373333 0.376667 0.380000 0.383333 0.386667 0.390000 0.393333 0.396667 0.400000 0.403333 0.406667 0.410000 0.413333 0.416667 0.420000 0.423333 0.426667 0.430000 0.433333 0.436667 0.440000 0.443333 0.446667 0.450000 0.453333 0.456667 0.460000 0.463333 0.466667 0.470000 0.473333 0.476667 0.480000 0.483333 0.486667 0.490000 0.493333 0.496667 0.500000 0.503333 0.506667 0.510000 0.513333 0.516667 0.520000 0.523333 0.526667 0.530000 0.533333 0.536667 0.540000 0.543333 0.546667 0.550000 0.553333 0.556667 0.560000 0.563333 0.566667 0.570000 0.573333 0.576667 0.580000 0.583333 0.586667 0.590000 0.593333 0.596667 0.600000 0.603333 0.606667 0.610000 0.613333 0.616667 0.620000 0.623333 0.626667 0.630000 0.633333 0.636667 0.640000 0.643333 0.646667 0.650000 0.653333 0.656667 0.660000 0.663333 0.666667 0.670000 0.673333 0.676667 0.680000 0.683333 0.686667 0.690000 0.693333 0.696667 0.700000 0.703333 0.706667 0.710000 0.713333 0.716667 0.720000 0.723333 0.726667 0.730000 0.733333 0.736667 0.740000 0.743333 0.746667 0.750000 0.753333 0.756667 0.760000 0.763333 0.766667 0.770000 0.773333 0.776667 0.780000 0.783333 0.786667 0.790000 0.793333 0.796667 0.800000 0.803333 0.806667 0.810000 0.813333 0.816667 0.820000 0.823333 0.826667 0.830000 0.833333 0.836667 0.840000 0.843333 0.846667 0.850000 0.853333 0.856667 0.860000 0.863333 0.866667 0.870000 0.873333 0.876667 0.880000 0.883333 0.886667 0.890000 0.893333 0.896667 0.900000 0.903333 0.906667 0.910000 0.913333 0.916667 0.920000 0.923333 0.926667 0.930000 0.933333 0.936667 0.940000 0.943333 0.946667 0.950000 0.953333 0.956667 0.960000 0.963333 0.966667 0.970000 0.973333 0.976667 0.980000 0.983333 0.986667 0.990000 0.993333 0.996667 1.000000 
Z_COORDINATES 1 double
0
POINT_DATA 90601 
FIELD FieldData 1 
Concentração 1 90601 double 
0.000000 
0.000000 
0.000000 
0.000000 
0.000000 
0.000000 
0.000000 
0.000000 
0.000000 
0.000000 
0.000000 
0.000000 
0.000000 
0.000000 
0.000000 
0.000000 
0.000000 
0.000000 
0.000000 
0.000000 
0.000000 
0.000000 
0.000000 
0.000000 
0.000000 
0.000000 
0.000000 
0.000000 
0.000000 
0.000000 
0.000000 
0.000000 
0.000000 
0.000000 
0.000000 
0.000000 
0.000000 
0.000000 
0.000000 
0.000000 
0.000000 
0.000000 
0.000000 
0.000000 
0.000000 
0.000000 
0.000000 
0.000000 
0.000000 
0.000000 
0.000000 
0.000000 
0.000000 
0.000000 
0.000000 
0.000000 
0.000000 
0.000000 
0.000000 
0.000000 
0.000000 
0.000000 
0.000000 
0.000000 
0.000000 
0.000000 
0.000000 
0.000000 
0.000000 
0.000000 
0.000000 
0.000001 
0.000001 
0.000001 
0.000001 
0.000001 
0.000001 
0.000001 
0.000001 
0.000001 
0.000001 
0.000001 
0.000001 
0.000001 
0.000001 
0.000001 
0.000002 
0.000002 
0.000002 
0.000002 
0.000002 
0.000002 
0.000002 
0.000003 
0.000003 
0.000003 
0.000003 
0.000003 
0.000004 
0.000004 
0.000004 
0.000005 
0.000005 
0.000005 
0.000006 
0.000006 
0.000006 
0.000007 
0.000007 
0.000008 
0.000008 
0.000009 
0.000009 
0.000010 
0.000011 
0.000011 
0.000012 
0.000013 
0.000014 
0.000015 
0.000015 
0.000016 
0.000017 
0.000019 
0.000020 
0.000021 
0.000022 
0.000023 
0.000025 
0.000026 
0.000028 
0.000029 
0.000031 
0.000033 
0.000035 
0.000036 
0.000039 
0.000041 
0.000043 
0.000045 
0.000048 
0.000050 
0.000053 
0.000055 
0.000058 
0.000061 
0.000064 
0.000068 
0.000071 
0.000075 
0.000078 
0.000082 
0.000086 
0.000090 
0.000094 
0.000099 
0.000103 
0.000108 
0.000113 
0.000118 
0.000123 
0.000129 
0.000134 
0.000140 
0.000146 
0.000152 
0.000159 
0.000165 
0.000172 
0.000179 
0.000186 
0.000194 
0.000201 
0.000209 
0.000217 
0.000225 
0.000234 
0.000242 
0.000251 
0.000260 
0.000270 
0.000279 
0.000289 
0.000299 
0.000309 
0.000319 
0.000330 
0.000341 
0.000352 
0.000363 
0.000375 
0.000386 
0.000398 
0.000410 
0.000422 
0.000435 
0.000448 
0.000460 
0.000474 
0.000487 
0.000500 
0.000514 
0.000528 
0.000541 
0.000556 
0.000570 
0.000584 
0.000599 
0.000613 
0.000628 
0.000643 
0.000658 
0.000673 
0.000689 
0.000704 
0.000720 
0.000735 
0.000751 
0.000767 
0.000782 
0.000798 
0.000814 
0.000830 
0.000846 
0.000862 
0.000878 
0.000894 
0.000910 
0.000926 
0.000942 
0.000958 
0.000974 
0.000990 
0.001006 
0.001022 
0.001038 
0.001053 
0.001069 
0.001085 
0.001100 
0.001115 
0.001131 
0.001146 
0.001161 
0.001176 
0.001191 
0.001205 
0.001220 
0.001234 
0.001248 
0.001263 
0.001276 
0.001290 
0.001304 
0.001317 
0.001330 
0.001343 
0.001356 
0.001368 
0.001381 
0.001393 
0.001405 
0.001416 
0.001427 
0.001439 
0.001450 
0.001460 
0.001471 
0.001481 
0.001490 
0.001500 
0.001509 
0.001518 
0.001527 
0.001536 
0.001544 
0.001552 
0.001559 
0.001567 
0.001574 
0.001580 
0.001587 
0.001593 
0.001599 
0.001604 
0.001609 
0.001614 
0.001619 
0.001623 
0.001627 
0.001630 
0.001634 
0.001637 
0.001639 
0.001641 
0.001643 
0.001645 
0.001646 
0.001647 
0.001648 
0.001648 
0.000000 
0.000000 
0.000000 
0.000000 
0.000000 
0.000000 
0.000000 
0.000000 
0.000000 
0.000000 
0.000000 
0.000000 
0.000000 
0.000000 
0.000000 
0.000000 
0.000000 
0.000000 
0.000000 
0.000000 
0.000000 
0.000000 
0.000000 
0.000000 
0.000000 
0.000000 
0.000000 
0.000000 
0.000000 
0.000000 
0.000000 
0.000000 
0.000000 
0.000000 
0.000000 
0.000000 
0.000000 
0.000000 
0.000000 
0.000000 
0.000000 
0.000000 
0.000000 
0.000000 
0.000000 
0.000000 
0.000000 
0.000000 
0.000000 
0.000000 
0.000000 
0.000000 
0.000000 
0.000000 
0.000000 
0.000000 
0.000000 
0.000000 
0.000000 
0.000000 
0.000000 
0.000000 
0.000000 
0.000001 
0.000001 
0.000001 
0.000001 
0.000001 
0.000001 
0.000001 
0.000001 
0.000001 
0.000001 
0.000001 
0.000001 
0.000001 
0.000001 
0.000002 
0.000002 
0.000002 
0.000002 
0.000002 
0.000002 
0.000003 
0.000003 
0.000003 
0.000003 
0.000003 
0.000004 
0.000004 
0.000004 
0.000005 
0.000005 
0.000005 
0.000006 
0.000006 
0.000007 
0.000007 
0.000007 
0.000008 
0.000009 
0.000009 
0.000010 
0.000011 
0.000011 
0.000012 
0.000013 
0.000014 
0.000015 
0.000016 
0.000017 
0.000018 
0.000019 
0.000020 
0.000022 
0.000023 
0.000024 
0.000026 
0.000028 
0.000029 
0.000031 
0.000033 
0.000035 
0.000037 
0.000039 
0.000042 
0.000044 
0.000047 
0.000050 
0.000053 
0.000056 
0.000059 
0.000062 
0.000066 
0.000069 
0.000073 
0.000077 
0.000082 
0.000086 
0.000091 
0.000095 
0.000101 
0.000106 
0.000111 
0.000117 
0.000123 
0.000129 
0.000136 
0.000143 
0.000150 
0.000157 
0.000165 
0.000173 
0.000181 
0.000189 
0.000198 
0.000207 
0.000217 
0.000227 
0.000237 
0.000247 
0.000258 
0.000270 
0.000281 
0.000293 
0.000306 
0.000318 
0.000332 
0.000345 
0.000359 
0.000373 
0.000388 
0.000403 
0.000419 
0.000435 
0.000452 
0.000469 
0.000486 
0.000504 
0.000522 
0.000541 
0.000560 
0.000579 
0.000599 
0.000620 
0.000640 
0.000662 
0.000683 
0.000705 
0.000728 
0.000751 
0.000774 
0.000798 
0.000822 
0.000847 
0.000872 
0.000897 
0.000923 
0.000949 
0.000976 
0.001002 
0.001030 
0.001057 
0.001085 
0.001113 
0.001142 
0.001171 
0.001200 
0.001229 
0.001259 
0.001289 
0.001319 
0.001349 
0.001380 
0.001410 
0.001441 
0.001472 
0.001504 
0.001535 
0.001567 
0.001598 
0.001630 
0.001662 
0.001694 
0.001726 
0.001758 
0.001790 
0.001822 
0.001854 
0.001886 
0.001918 
0.001950 
0.001982 
0.002013 
0.002045 
0.002077 
0.002108 
0.002139 
0.002170 
0.002201 
0.002232 
0.002262 
0.002293 
0.002323 
0.002353 
0.002382 
0.002412 
0.002440 
0.002469 
0.002498 
0.002526 
0.002553 
0.002581 
0.002608 
0.002634 
0.002660 
0.002686 
0.002712 
0.002737 
0.002761 
0.002785 
0.002809 
0.002832 
0.002855 
0.002877 
0.002899 
0.002920 
0.002940 
0.002961 
0.002980 
0.002999 
0.003018 
0.003036 
0.003053 
0.003070 
0.003086 
0.003102 
0.003117 
0.003132 
0.003146 
0.003159 
0.003172 
0.003184 
0.003196 
0.003207 
0.003217 
0.003227 
0.003236 
0.003244 
0.003252 
0.003259 
0.003265 
0.003271 
0.003277 
0.003281 
0.003285 
0.003288 
0.003291 
0.003293 
0.003294 
0.003295 
0.000000 
0.000000 
0.000000 
0.000000 
0.000000 
0.000000 
0.000000 
0.000000 
0.000000 
0.000000 
0.000000 
0.000000 
0.000000 
0.000000 
0.000000 
0.000000 
0.000000 
0.000000 
0.000000 
0.000000 
0.000000 
0.000000 
0.000000 
0.000000 
0.000000 
0.000000 
0.000000 
0.000000 
0.000000 
0.000000 
0.000000 
0.000000 
0.000000 
0.000000 
0.000000 
0.000000 
0.000000 
0.000000 
0.000000 
0.000000 
0.000000 
0.000000 
0.000000 
0.000000 
0.000000 
0.000000 
0.000000 
0.000000 
0.000000 
0.000000 
0.000000 
0.000000 
0.000000 
0.000000 
0.000000 
0.000000 
0.000000 
0.000000 
0.000001 
0.000001 
0.000001 
0.000001 
0.000001 
0.000001 
0.000001 
0.000001 
0.000001 
0.000001 
0.000001 
0.000001 
0.000001 
0.000002 
0.000002 
0.000002 
0.000002 
0.000002 
0.000002 
0.000002 
0.000003 
0.000003 
0.000003 
0.000003 
0.000004 
0.000004 
0.000004 
0.000004 
0.000005 
0.000005 
0.000006 
0.000006 
0.000006 
0.000007 
0.000007 
0.000008 
0.000009 
0.000009 
0.000010 
0.000011 
0.000011 
0.000012 
0.000013 
0.000014 
0.000015 
0.000016 
0.000017 
0.000018 
0.000019 
0.000021 
0.000022 
0.000024 
0.000025 
0.000027 
0.000029 
0.000031 
0.000033 
0.000035 
0.000037 
0.000039 
0.000042 
0.000044 
0.000047 
0.000050 
0.000053 
0.000056 
0.000060 
0.000063 
0.000067 
0.000071 
0.000075 
0.000079 
0.000084 
0.000089 
0.000094 
0.000099 
0.000105 
0.000111 
0.000117 
0.000123 
0.000130 
0.000137 
0.000144 
0.000152 
0.000160 
0.000168 
0.000177 
0.000186 
0.000195 
0.000205 
0.000215 
0.000226 
0.000237 
0.000249 
0.000260 
0.000273 
0.000286 
0.000299 
0.000313 
0.000327 
0.000342 
0.000357 
0.000373 
0.000390 
0.000407 
0.000424 
0.000442 
0.000461 
0.000480 
0.000500 
0.000521 
0.000542 
0.000563 
0.000586 
0.000608 
0.000632 
0.000656 
0.000681 
0.000706 
0.000733 
0.000759 
0.000787 
0.000815 
0.000844 
0.000873 
0.000903 
0.000934 
0.000965 
0.000997 
0.001030 
0.001063 
0.001097 
0.001131 
0.001166 
0.001202 
0.001238 
0.001275 
0.001313 
0.001351 
0.001390 
0.001429 
0.001469 
0.001509 
0.001550 
0.001591 
0.001633 
0.001675 
0.001718 
0.001761 
0.001805 
0.001849 
0.001893 
0.001938 
0.001983 
0.002029 
0.002075 
0.002121 
0.002167 
0.002214 
0.002261 
0.002308 
0.002355 
0.002403 
0.002450 
0.002498 
0.002546 
0.002594 
0.002641 
0.002689 
0.002737 
0.002785 
0.002833 
0.002881 
0.002929 
0.002977 
0.003024 
0.003071 
0.003119 
0.003166 
0.003212 
0.003259 
0.003305 
0.003351 
0.003397 
0.003442 
0.003487 
0.003532 
0.003576 
0.003620 
0.003663 
0.003706 
0.003748 
0.003790 
0.003831 
0.003872 
0.003913 
0.003952 
0.003991 
0.004030 
0.004068 
0.004105 
0.004142 
0.004178 
0.004213 
0.004248 
0.004281 
0.004315 
0.004347 
0.004379 
0.004410 
0.004440 
0.004469 
0.004497 
0.004525 
0.004552 
0.004578 
0.004603 
0.004628 
0.004651 
0.004674 
0.004695 
0.004716 
0.004736 
0.004755 
0.004773 
0.004791 
0.004807 
0.004822 
0.004837 
0.004850 
0.004863 
0.004874 
0.004885 
0.004895 
0.004903 
0.004911 
0.004918 
0.004924 
0.004929 
0.004932 
0.004935 
0.004937 
0.004938 
0.000000 
0.000000 
0.000000 
0.000000 
0.000000 
0.000000 
0.000000 
0.000000 
0.000000 
0.000000 
0.000000 
0.000000 
0.000000 
0.000000 
0.000000 
0.000000 
0.000000 
0.000000 
0.000000 
0.000000 
0.000000 
0.000000 
0.000000 
0.000000 
0.000000 
0.000000 
0.000000 
0.000000 
0.000000 
0.000000 
0.000000 
0.000000 
0.000000 
0.000000 
0.000000 
0.000000 
0.000000 
0.000000 
0.000000 
0.000000 
0.000000 
0.000000 
0.000000 
0.000000 
0.000000 
0.000000 
0.000000 
0.000000 
0.000000 
0.000000 
0.000000 
0.000000 
0.000000 
0.000000 
0.000001 
0.000001 
0.000001 
0.000001 
0.000001 
0.000001 
0.000001 
0.000001 
0.000001 
0.000001 
0.000001 
0.000001 
0.000001 
0.000001 
0.000002 
0.000002 
0.000002 
0.000002 
0.000002 
0.000002 
0.000003 
0.000003 
0.000003 
0.000003 
0.000004 
0.000004 
0.000004 
0.000004 
0.000005 
0.000005 
0.000006 
0.000006 
0.000006 
0.000007 
0.000008 
0.000008 
0.000009 
0.000009 
0.000010 
0.000011 
0.000012 
0.000012 
0.000013 
0.000014 
0.000015 
0.000016 
0.000018 
0.000019 
0.000020 
0.000021 
0.000023 
0.000025 
0.000026 
0.000028 
0.000030 
0.000032 
0.000034 
0.000036 
0.000039 
0.000041 
0.000044 
0.000047 
0.000050 
0.000053 
0.000056 
0.000060 
0.000063 
0.000067 
0.000071 
0.000076 
0.000080 
0.000085 
0.000090 
0.000096 
0.000101 
0.000107 
0.000113 
0.000120 
0.000127 
0.000134 
0.000141 
0.000149 
0.000157 
0.000166 
0.000175 
0.000184 
0.000194 
0.000204 
0.000215 
0.000226 
0.000238 
0.000250 
0.000263 
0.000276 
0.000290 
0.000304 
0.000319 
0.000334 
0.000350 
0.000367 
0.000384 
0.000402 
0.000421 
0.000440 
0.000460 
0.000481 
0.000502 
0.000524 
0.000547 
0.000570 
0.000594 
0.000620 
0.000645 
0.000672 
0.000699 
0.000728 
0.000757 
0.000787 
0.000817 
0.000849 
0.000881 
0.000915 
0.000949 
0.000984 
0.001020 
0.001056 
0.001094 
0.001132 
0.001172 
0.001212 
0.001253 
0.001295 
0.001338 
0.001381 
0.001426 
0.001471 
0.001517 
0.001564 
0.001612 
0.001660 
0.001710 
0.001760 
0.001811 
0.001863 
0.001915 
0.001968 
0.002022 
0.002076 
0.002132 
0.002187 
0.002244 
0.002301 
0.002359 
0.002417 
0.002476 
0.002535 
0.002595 
0.002655 
0.002716 
0.002777 
0.002838 
0.002900 
0.002962 
0.003024 
0.003087 
0.003150 
0.003213 
0.003277 
0.003340 
0.003404 
0.003467 
0.003531 
0.003595 
0.003659 
0.003723 
0.003786 
0.003850 
0.003913 
0.003977 
0.004040 
0.004103 
0.004166 
0.004228 
0.004290 
0.004352 
0.004413 
0.004474 
0.004535 
0.004595 
0.004655 
0.004714 
0.004773 
0.004831 
0.004888 
0.004945 
0.005001 
0.005057 
0.005112 
0.005166 
0.005219 
0.005272 
0.005324 
0.005375 
0.005425 
0.005475 
0.005523 
0.005571 
0.005618 
0.005664 
0.005709 
0.005752 
0.005795 
0.005837 
0.005878 
0.005918 
0.005957 
0.005995 
0.006031 
0.006067 
0.006101 
0.006135 
0.006167 
0.006198 
0.006228 
0.006257 
0.006284 
0.006311 
0.006336 
0.006360 
0.006383 
0.006404 
0.006425 
0.006444 
0.006462 
0.006478 
0.006493 
0.006508 
0.006520 
0.006532 
0.006542 
0.006551 
0.006559 
0.006565 
0.006571 
0.006574 
0.006577 
0.006578 
0.000000 
0.000000 
0.000000 
0.000000 
0.000000 
0.000000 
0.000000 
0.000000 
0.000000 
0.000000 
0.000000 
0.000000 
0.000000 
0.000000 
0.000000 
0.000000 
0.000000 
0.000000 
0.000000 
0.000000 
0.000000 
0.000000 
0.000000 
0.000000 
0.000000 
0.000000 
0.000000 
0.000000 
0.000000 
0.000000 
0.000000 
0.000000 
0.000000 
0.000000 
0.000000 
0.000000 
0.000000 
0.000000 
0.000000 
0.000000 
0.000000 
0.000000 
0.000000 
0.000000 
0.000000 
0.000000 
0.000000 
0.000000 
0.000000 
0.000000 
0.000000 
0.000000 
0.000001 
0.000001 
0.000001 
0.000001 
0.000001 
0.000001 
0.000001 
0.000001 
0.000001 
0.000001 
0.000001 
0.000001 
0.000001 
0.000002 
0.000002 
0.000002 
0.000002 
0.000002 
0.000002 
0.000003 
0.000003 
0.000003 
0.000003 
0.000004 
0.000004 
0.000004 
0.000005 
0.000005 
0.000005 
0.000006 
0.000006 
0.000007 
0.000007 
0.000008 
0.000008 
0.000009 
0.000010 
0.000010 
0.000011 
0.000012 
0.000013 
0.000014 
0.000015 
0.000016 
0.000017 
0.000018 
0.000019 
0.000021 
0.000022 
0.000024 
0.000025 
0.000027 
0.000029 
0.000031 
0.000033 
0.000035 
0.000038 
0.000040 
0.000043 
0.000046 
0.000049 
0.000052 
0.000056 
0.000059 
0.000063 
0.000067 
0.000071 
0.000076 
0.000080 
0.000085 
0.000090 
0.000096 
0.000102 
0.000108 
0.000114 
0.000121 
0.000128 
0.000136 
0.000143 
0.000152 
0.000160 
0.000169 
0.000179 
0.000189 
0.000199 
0.000210 
0.000221 
0.000233 
0.000246 
0.000259 
0.000272 
0.000286 
0.000301 
0.000316 
0.000332 
0.000349 
0.000366 
0.000384 
0.000403 
0.000423 
0.000443 
0.000464 
0.000486 
0.000508 
0.000532 
0.000556 
0.000581 
0.000607 
0.000634 
0.000662 
0.000691 
0.000720 
0.000751 
0.000782 
0.000815 
0.000848 
0.000883 
0.000919 
0.000955 
0.000993 
0.001031 
0.001071 
0.001112 
0.001154 
0.001197 
0.001241 
0.001286 
0.001332 
0.001379 
0.001427 
0.001477 
0.001527 
0.001579 
0.001632 
0.001685 
0.001740 
0.001796 
0.001853 
0.001911 
0.001970 
0.002029 
0.002090 
0.002152 
0.002215 
0.002279 
0.002344 
0.002409 
0.002476 
0.002543 
0.002612 
0.002681 
0.002751 
0.002821 
0.002893 
0.002965 
0.003038 
0.003111 
0.003185 
0.003260 
0.003335 
0.003411 
0.003487 
0.003564 
0.003641 
0.003719 
0.003797 
0.003875 
0.003954 
0.004033 
0.004112 
0.004191 
0.004270 
0.004350 
0.004429 
0.004509 
0.004588 
0.004668 
0.004747 
0.004826 
0.004905 
0.004984 
0.005063 
0.005141 
0.005219 
0.005297 
0.005374 
0.005451 
0.005528 
0.005604 
0.005679 
0.005754 
0.005828 
0.005902 
0.005975 
0.006047 
0.006118 
0.006189 
0.006259 
0.006328 
0.006396 
0.006463 
0.006530 
0.006595 
0.006660 
0.006723 
0.006785 
0.006847 
0.006907 
0.006966 
0.007024 
0.007081 
0.007137 
0.007191 
0.007244 
0.007296 
0.007347 
0.007396 
0.007445 
0.007491 
0.007537 
0.007581 
0.007624 
0.007665 
0.007705 
0.007743 
0.007781 
0.007816 
0.007850 
0.007883 
0.007914 
0.007944 
0.007972 
0.007999 
0.008024 
0.008048 
0.008070 
0.008090 
0.008109 
0.008127 
0.008143 
0.008157 
0.008170 
0.008181 
0.008190 
0.008198 
0.008205 
0.008210 
0.008213 
0.008214 
0.000000 
0.000000 
0.000000 
0.000000 
0.000000 
0.000000 
0.000000 
0.000000 
0.000000 
0.000000 
0.000000 
0.000000 
0.000000 
0.000000 
0.000000 
0.000000 
0.000000 
0.000000 
0.000000 
0.000000 
0.000000 
0.000000 
0.000000 
0.000000 
0.000000 
0.000000 
0.000000 
0.000000 
0.000000 
0.000000 
0.000000 
0.000000 
0.000000 
0.000000 
0.000000 
0.000000 
0.000000 
0.000000 
0.000000 
0.000000 
0.000000 
0.000000 
0.000000 
0.000000 
0.000000 
0.000000 
0.000000 
0.000000 
0.000000 
0.000001 
0.000001 
0.000001 
0.000001 
0.000001 
0.000001 
0.000001 
0.000001 
0.000001 
0.000001 
0.000001 
0.000001 
0.000001 
0.000002 
0.000002 
0.000002 
0.000002 
0.000002 
0.000002 
0.000003 
0.000003 
0.000003 
0.000003 
0.000003 
0.000004 
0.000004 
0.000004 
0.000005 
0.000005 
0.000006 
0.000006 
0.000006 
0.000007 
0.000007 
0.000008 
0.000009 
0.000009 
0.000010 
0.000011 
0.000012 
0.000013 
0.000013 
0.000014 
0.000016 
0.000017 
0.000018 
0.000019 
0.000021 
0.000022 
0.000024 
0.000025 
0.000027 
0.000029 
0.000031 
0.000033 
0.000036 
0.000038 
0.000041 
0.000043 
0.000046 
0.000049 
0.000053 
0.000056 
0.000060 
0.000064 
0.000068 
0.000072 
0.000077 
0.000082 
0.000087 
0.000092 
0.000098 
0.000104 
0.000110 
0.000117 
0.000124 
0.000132 
0.000139 
0.000148 
0.000156 
0.000165 
0.000175 
0.000185 
0.000195 
0.000206 
0.000218 
0.000230 
0.000243 
0.000256 
0.000270 
0.000284 
0.000299 
0.000315 
0.000331 
0.000349 
0.000367 
0.000385 
0.000405 
0.000425 
0.000446 
0.000468 
0.000491 
0.000514 
0.000539 
0.000564 
0.000591 
0.000618 
0.000647 
0.000676 
0.000707 
0.000738 
0.000771 
0.000804 
0.000839 
0.000875 
0.000912 
0.000951 
0.000990 
0.001031 
0.001072 
0.001115 
0.001160 
0.001205 
0.001252 
0.001300 
0.001349 
0.001400 
0.001452 
0.001505 
0.001560 
0.001615 
0.001672 
0.001731 
0.001790 
0.001851 
0.001914 
0.001977 
0.002042 
0.002108 
0.002175 
0.002244 
0.002314 
0.002385 
0.002457 
0.002530 
0.002605 
0.002681 
0.002757 
0.002835 
0.002914 
0.002995 
0.003076 
0.003158 
0.003241 
0.003325 
0.003410 
0.003496 
0.003582 
0.003670 
0.003758 
0.003847 
0.003937 
0.004027 
0.004118 
0.004209 
0.004301 
0.004394 
0.004487 
0.004580 
0.004674 
0.004768 
0.004863 
0.004957 
0.005052 
0.005147 
0.005242 
0.005338 
0.005433 
0.005528 
0.005623 
0.005718 
0.005813 
0.005907 
0.006001 
0.006095 
0.006189 
0.006282 
0.006375 
0.006467 
0.006559 
0.006650 
0.006741 
0.006831 
0.006920 
0.007008 
0.007096 
0.007183 
0.007269 
0.007354 
0.007438 
0.007522 
0.007604 
0.007685 
0.007765 
0.007844 
0.007922 
0.007999 
0.008074 
0.008149 
0.008222 
0.008293 
0.008364 
0.008433 
0.008500 
0.008567 
0.008631 
0.008695 
0.008756 
0.008817 
0.008875 
0.008933 
0.008988 
0.009042 
0.009095 
0.009145 
0.009195 
0.009242 
0.009288 
0.009332 
0.009374 
0.009415 
0.009454 
0.009491 
0.009526 
0.009559 
0.009591 
0.009621 
0.009649 
0.009675 
0.009700 
0.009722 
0.009743 
0.009762 
0.009779 
0.009794 
0.009807 
0.009818 
0.009828 
0.009836 
0.009841 
0.009845 
0.009847 
0.000000 
0.000000 
0.000000 
0.000000 
0.000000 
0.000000 
0.000000 
0.000000 
0.000000 
0.000000 
0.000000 
0.000000 
0.000000 
0.000000 
0.000000 
0.000000 
0.000000 
0.000000 
0.000000 
0.000000 
0.000000 
0.000000 
0.000000 
0.000000 
0.000000 
0.000000 
0.000000 
0.000000 
0.000000 
0.000000 
0.000000 
0.000000 
0.000000 
0.000000 
0.000000 
0.000000 
0.000000 
0.000000 
0.000000 
0.000000 
0.000000 
0.000000 
0.000000 
0.000000 
0.000000 
0.000000 
0.000000 
0.000001 
0.000001 
0.000001 
0.000001 
0.000001 
0.000001 
0.000001 
0.000001 
0.000001 
0.000001 
0.000001 
0.000001 
0.000001 
0.000002 
0.000002 
0.000002 
0.000002 
0.000002 
0.000002 
0.000003 
0.000003 
0.000003 
0.000003 
0.000004 
0.000004 
0.000004 
0.000004 
0.000005 
0.000005 
0.000006 
0.000006 
0.000007 
0.000007 
0.000008 
0.000008 
0.000009 
0.000010 
0.000010 
0.000011 
0.000012 
0.000013 
0.000014 
0.000015 
0.000016 
0.000017 
0.000018 
0.000020 
0.000021 
0.000023 
0.000025 
0.000026 
0.000028 
0.000030 
0.000032 
0.000035 
0.000037 
0.000040 
0.000042 
0.000045 
0.000048 
0.000052 
0.000055 
0.000059 
0.000063 
0.000067 
0.000071 
0.000076 
0.000081 
0.000086 
0.000091 
0.000097 
0.000103 
0.000110 
0.000116 
0.000124 
0.000131 
0.000139 
0.000147 
0.000156 
0.000166 
0.000175 
0.000186 
0.000196 
0.000208 
0.000220 
0.000232 
0.000245 
0.000259 
0.000273 
0.000288 
0.000304 
0.000320 
0.000337 
0.000355 
0.000374 
0.000393 
0.000414 
0.000435 
0.000457 
0.000480 
0.000504 
0.000529 
0.000555 
0.000582 
0.000610 
0.000639 
0.000669 
0.000700 
0.000733 
0.000766 
0.000801 
0.000837 
0.000874 
0.000913 
0.000953 
0.000994 
0.001036 
0.001080 
0.001125 
0.001172 
0.001220 
0.001269 
0.001320 
0.001372 
0.001425 
0.001481 
0.001537 
0.001595 
0.001655 
0.001716 
0.001778 
0.001843 
0.001908 
0.001975 
0.002044 
0.002114 
0.002186 
0.002259 
0.002333 
0.002409 
0.002487 
0.002566 
0.002646 
0.002728 
0.002812 
0.002896 
0.002982 
0.003070 
0.003158 
0.003248 
0.003340 
0.003432 
0.003526 
0.003621 
0.003717 
0.003814 
0.003912 
0.004012 
0.004112 
0.004213 
0.004315 
0.004418 
0.004522 
0.004627 
0.004732 
0.004838 
0.004945 
0.005052 
0.005160 
0.005269 
0.005377 
0.005487 
0.005596 
0.005706 
0.005816 
0.005927 
0.006037 
0.006148 
0.006259 
0.006369 
0.006480 
0.006590 
0.006700 
0.006810 
0.006920 
0.007030 
0.007139 
0.007247 
0.007356 
0.007463 
0.007570 
0.007677 
0.007782 
0.007887 
0.007992 
0.008095 
0.008198 
0.008299 
0.008400 
0.008499 
0.008598 
0.008696 
0.008792 
0.008887 
0.008981 
0.009074 
0.009165 
0.009255 
0.009344 
0.009431 
0.009517 
0.009601 
0.009684 
0.009765 
0.009845 
0.009923 
0.009999 
0.010074 
0.010147 
0.010219 
0.010288 
0.010356 
0.010422 
0.010486 
0.010549 
0.010609 
0.010668 
0.010724 
0.010779 
0.010832 
0.010882 
0.010931 
0.010978 
0.011023 
0.011066 
0.011106 
0.011145 
0.011181 
0.011216 
0.011248 
0.011278 
0.011307 
0.011333 
0.011356 
0.011378 
0.011398 
0.011415 
0.011430 
0.011443 
0.011454 
0.011463 
0.011470 
0.011474 
0.011476 
0.000000 
0.000000 
0.000000 
0.000000 
0.000000 
0.000000 
0.000000 
0.000000 
0.000000 
0.000000 
0.000000 
0.000000 
0.000000 
0.000000 
0.000000 
0.000000 
0.000000 
0.000000 
0.000000 
0.000000 
0.000000 
0.000000 
0.000000 
0.000000 
0.000000 
0.000000 
0.000000 
0.000000 
0.000000 
0.000000 
0.000000 
0.000000 
0.000000 
0.000000 
0.000000 
0.000000 
0.000000 
0.000000 
0.000000 
0.000000 
0.000000 
0.000000 
0.000000 
0.000000 
0.000000 
0.000000 
0.000001 
0.000001 
0.000001 
0.000001 
0.000001 
0.000001 
0.000001 
0.000001 
0.000001 
0.000001 
0.000001 
0.000001 
0.000002 
0.000002 
0.000002 
0.000002 
0.000002 
0.000002 
0.000003 
0.000003 
0.000003 
0.000003 
0.000003 
0.000004 
0.000004 
0.000004 
0.000005 
0.000005 
0.000006 
0.000006 
0.000007 
0.000007 
0.000008 
0.000008 
0.000009 
0.000010 
0.000010 
0.000011 
0.000012 
0.000013 
0.000014 
0.000015 
0.000016 
0.000017 
0.000019 
0.000020 
0.000022 
0.000023 
0.000025 
0.000027 
0.000029 
0.000031 
0.000033 
0.000035 
0.000038 
0.000040 
0.000043 
0.000046 
0.000049 
0.000053 
0.000056 
0.000060 
0.000064 
0.000069 
0.000073 
0.000078 
0.000083 
0.000088 
0.000094 
0.000100 
0.000107 
0.000113 
0.000120 
0.000128 
0.000136 
0.000144 
0.000153 
0.000162 
0.000172 
0.000182 
0.000193 
0.000205 
0.000217 
0.000229 
0.000242 
0.000256 
0.000271 
0.000286 
0.000302 
0.000318 
0.000336 
0.000354 
0.000373 
0.000393 
0.000414 
0.000436 
0.000459 
0.000482 
0.000507 
0.000533 
0.000559 
0.000587 
0.000616 
0.000646 
0.000678 
0.000710 
0.000744 
0.000779 
0.000815 
0.000853 
0.000892 
0.000932 
0.000974 
0.001017 
0.001062 
0.001108 
0.001155 
0.001204 
0.001255 
0.001307 
0.001361 
0.001416 
0.001474 
0.001532 
0.001593 
0.001655 
0.001718 
0.001784 
0.001851 
0.001919 
0.001990 
0.002062 
0.002136 
0.002212 
0.002289 
0.002368 
0.002449 
0.002532 
0.002616 
0.002702 
0.002789 
0.002879 
0.002969 
0.003062 
0.003156 
0.003252 
0.003349 
0.003448 
0.003549 
0.003650 
0.003754 
0.003858 
0.003965 
0.004072 
0.004181 
0.004291 
0.004402 
0.004515 
0.004629 
0.004743 
0.004859 
0.004976 
0.005094 
0.005213 
0.005333 
0.005453 
0.005574 
0.005696 
0.005819 
0.005942 
0.006066 
0.006190 
0.006315 
0.006440 
0.006565 
0.006691 
0.006816 
0.006942 
0.007068 
0.007194 
0.007320 
0.007446 
0.007572 
0.007697 
0.007822 
0.007947 
0.008072 
0.008195 
0.008319 
0.008442 
0.008564 
0.008686 
0.008806 
0.008926 
0.009045 
0.009164 
0.009281 
0.009397 
0.009512 
0.009626 
0.009739 
0.009851 
0.009962 
0.010071 
0.010178 
0.010285 
0.010390 
0.010493 
0.010595 
0.010695 
0.010794 
0.010891 
0.010986 
0.011080 
0.011172 
0.011262 
0.011350 
0.011437 
0.011521 
0.011604 
0.011684 
0.011763 
0.011839 
0.011914 
0.011986 
0.012057 
0.012125 
0.012191 
0.012255 
0.012317 
0.012376 
0.012433 
0.012488 
0.012541 
0.012592 
0.012640 
0.012686 
0.012729 
0.012770 
0.012809 
0.012846 
0.012880 
0.012911 
0.012941 
0.012968 
0.012992 
0.013014 
0.013034 
0.013051 
0.013066 
0.013078 
0.013088 
0.013095 
0.013100 
0.013103 
0.000000 
0.000000 
0.000000 
0.000000 
0.000000 
0.000000 
0.000000 
0.000000 
0.000000 
0.000000 
0.000000 
0.000000 
0.000000 
0.000000 
0.000000 
0.000000 
0.000000 
0.000000 
0.000000 
0.000000 
0.000000 
0.000000 
0.000000 
0.000000 
0.000000 
0.000000 