# vtk DataFile Version 3.0
results.vtk
ASCII
DATASET RECTILINEAR_GRID
DIMENSIONS 301 301 1
X_COORDINATES 301 double
0.000000 0.003333 0.006667 0.010000 0.013333 0.016667 0.020000 0.023333 0.026667 0.030000 0.033333 0.036667 0.040000 0.043333 0.046667 0.050000 0.053333 0.056667 0.060000 0.063333 0.066667 0.070000 0.073333 0.076667 0.080000 0.083333 0.086667 0.090000 0.093333 0.096667 0.100000 0.103333 0.106667 0.110000 0.113333 0.116667 0.120000 0.123333 0.126667 0.130000 0.133333 0.136667 0.140000 0.143333 0.146667 0.150000 0.153333 0.156667 0.160000 0.163333 0.166667 0.170000 0.173333 0.176667 0.180000 0.183333 0.186667 0.190000 0.193333 0.196667 0.200000 0.203333 0.206667 0.210000 0.213333 0.216667 0.220000 0.223333 0.226667 0.230000 0.233333 0.236667 0.240000 0.243333 0.246667 0.250000 0.253333 0.256667 0.260000 0.263333 0.266667 0.270000 0.273333 0.276667 0.280000 0.283333 0.286667 0.290000 0.293333 0.296667 0.300000 0.303333 0.306667 0.310000 0.313333 0.316667 0.320000 0.323333 0.326667 0.330000 0.333333 0.336667 0.340000 0.343333 0.346667 0.350000 0.353333 0.356667 0.360000 0.363333 0.366667 0.370000 0.373333 0.376667 0.380000 0.383333 0.386667 0.390000 0.393333 0.396667 0.400000 0.403333 0.406667 0.410000 0.413333 0.416667 0.420000 0.423333 0.426667 0.430000 0.433333 0.436667 0.440000 0.443333 0.446667 0.450000 0.453333 0.456667 0.460000 0.463333 0.466667 0.470000 0.473333 0.476667 0.480000 0.483333 0.486667 0.490000 0.493333 0.496667 0.500000 0.503333 0.506667 0.510000 0.513333 0.516667 0.520000 0.523333 0.526667 0.530000 0.533333 0.536667 0.540000 0.543333 0.546667 0.550000 0.553333 0.556667 0.560000 0.563333 0.566667 0.570000 0.573333 0.576667 0.580000 0.583333 0.586667 0.590000 0.593333 0.596667 0.600000 0.603333 0.606667 0.610000 0.613333 0.616667 0.620000 0.623333 0.626667 0.630000 0.633333 0.636667 0.640000 0.643333 0.646667 0.650000 0.653333 0.656667 0.660000 0.663333 0.666667 0.670000 0.673333 0.676667 0.680000 0.683333 0.686667 0.690000 0.693333 0.696667 0.700000 0.703333 0.706667 0.710000 0.713333 0.716667 0.720000 0.723333 0.726667 0.730000 0.733333 0.736667 0.740000 0.743333 0.746667 0.750000 0.753333 0.756667 0.760000 0.763333 0.766667 0.770000 0.773333 0.776667 0.780000 0.783333 0.786667 0.790000 0.793333 0.796667 0.800000 0.803333 0.806667 0.810000 0.813333 0.816667 0.820000 0.823333 0.826667 0.830000 0.833333 0.836667 0.840000 0.843333 0.846667 0.850000 0.853333 0.856667 0.860000 0.863333 0.866667 0.870000 0.873333 0.876667 0.880000 0.883333 0.886667 0.890000 0.893333 0.896667 0.900000 0.903333 0.906667 0.910000 0.913333 0.916667 0.920000 0.923333 0.926667 0.930000 0.933333 0.936667 0.940000 0.943333 0.946667 0.950000 0.953333 0.956667 0.960000 0.963333 0.966667 0.970000 0.973333 0.976667 0.980000 0.983333 0.986667 0.990000 0.993333 0.996667 1.000000 
Y_COORDINATES 301 double
0.000000 0.003333 0.006667 0.010000 0.013333 0.016667 0.020000 0.023333 0.026667 0.030000 0.033333 0.036667 0.040000 0.043333 0.046667 0.050000 0.053333 0.056667 0.060000 0.063333 0.066667 0.070000 0.073333 0.076667 0.080000 0.083333 0.086667 0.090000 0.093333 0.096667 0.100000 0.103333 0.106667 0.110000 0.113333 0.116667 0.120000 0.123333 0.126667 0.130000 0.133333 0.136667 0.140000 0.143333 0.146667 0.150000 0.153333 0.156667 0.160000 0.163333 0.166667 0.170000 0.173333 0.176667 0.180000 0.183333 0.186667 0.190000 0.193333 0.196667 0.200000 0.203333 0.206667 0.210000 0.213333 0.216667 0.220000 0.223333 0.226667 0.230000 0.233333 0.236667 0.240000 0.243333 0.246667 0.250000 0.253333 0.256667 0.260000 0.263333 0.266667 0.270000 0.273333 0.276667 0.280000 0.283333 0.286667 0.290000 0.293333 0.296667 0.300000 0.303333 0.306667 0.310000 0.313333 0.316667 0.320000 0.323333 0.326667 0.330000 0.333333 0.336667 0.340000 0.343333 0.346667 0.350000 0.353333 0.356667 0.360000 0.363333 0.366667 0.370000 0.373333 0.376667 0.380000 0.383333 0.386667 0.390000 0.393333 0.396667 0.400000 0.403333 0.406667 0.410000 0.413333 0.416667 0.420000 0.423333 0.426667 0.430000 0.433333 0.436667 0.440000 0.443333 0.446667 0.450000 0.453333 0.456667 0.460000 0.463333 0.466667 0.470000 0.473333 0.476667 0.480000 0.483333 0.486667 0.490000 0.493333 0.496667 0.500000 0.503333 0.506667 0.510000 0.513333 0.516667 0.520000 0.523333 0.526667 0.530000 0.533333 0.536667 0.540000 0.543333 0.546667 0.550000 0.553333 0.556667 0.560000 0.563333 0.566667 0.570000 0.573333 0.576667 0.580000 0.583333 0.586667 0.590000 0.593333 0.596667 0.600000 0.603333 0.606667 0.610000 0.613333 0.616667 0.620000 0.623333 0.626667 0.630000 0.633333 0.636667 0.640000 0.643333 0.646667 0.650000 0.653333 0.656667 0.660000 0.663333 0.666667 0.670000 0.673333 0.676667 0.680000 0.683333 0.686667 0.690000 0.693333 0.696667 0.700000 0.703333 0.706667 0.710000 0.713333 0.716667 0.720000 0.723333 0.726667 0.730000 0.733333 0.736667 0.740000 0.743333 0.746667 0.750000 0.753333 0.756667 0.760000 0.763333 0.766667 0.770000 0.773333 0.776667 0.780000 0.783333 0.786667 0.790000 0.793333 0.796667 0.800000 0.803333 0.806667 0.810000 0.813333 0.816667 0.820000 0.823333 0.826667 0.830000 0.833333 0.836667 0.840000 0.843333 0.846667 0.850000 0.853333 0.856667 0.860000 0.863333 0.866667 0.870000 0.873333 0.876667 0.880000 0.883333 0.886667 0.890000 0.893333 0.896667 0.900000 0.903333 0.906667 0.910000 0.913333 0.916667 0.920000 0.923333 0.926667 0.930000 0.933333 0.936667 0.940000 0.943333 0.946667 0.950000 0.953333 0.956667 0.960000 0.963333 0.966667 0.970000 0.973333 0.976667 0.980000 0.983333 0.986667 0.990000 0.993333 0.996667 1.000000 
Z_COORDINATES 1 double
0
POINT_DATA 90601 
FIELD FieldData 1 
Concentração 1 90601 double 
0.000000 
0.000000 
0.000000 
0.000000 
0.000000 
0.000000 
0.000000 
0.000000 
0.000000 
0.000000 
0.000000 
0.000000 
0.000000 
0.000000 
0.000000 
0.000000 
0.000000 
0.000000 
0.000000 
0.000000 
0.000000 
0.000000 
0.000000 
0.000000 
0.000000 
0.000000 
0.000000 
0.000000 
0.000000 
0.000000 
0.000000 
0.000000 
0.000000 
0.000000 
0.000000 
0.000000 
0.000000 
0.000000 
0.000000 
0.000000 
0.000000 
0.000000 
0.000000 
0.000000 
0.000000 
0.000000 
0.000000 
0.000000 
0.000000 
0.000000 
0.000000 
0.000000 
0.000000 
0.000000 
0.000000 
0.000000 
0.000000 
0.000000 
0.000000 
0.000000 
0.000000 
0.000000 
0.000000 
0.000000 
0.000000 
0.000000 
0.000000 
0.000000 
0.000000 
0.000000 
0.000000 
0.000000 
0.000000 
0.000000 
0.000000 
0.000000 
0.000000 
0.000000 
0.000000 
0.000000 
0.000000 
0.000000 
0.000000 
0.000000 
0.000000 
0.000001 
0.000001 
0.000001 
0.000001 
0.000001 
0.000001 
0.000001 
0.000001 
0.000001 
0.000001 
0.000001 
0.000001 
0.000001 
0.000001 
0.000001 
0.000002 
0.000002 
0.000002 
0.000002 
0.000002 
0.000002 
0.000002 
0.000003 
0.000003 
0.000003 
0.000003 
0.000003 
0.000004 
0.000004 
0.000004 
0.000004 
0.000005 
0.000005 
0.000005 
0.000005 
0.000006 
0.000006 
0.000007 
0.000007 
0.000008 
0.000008 
0.000008 
0.000009 
0.000010 
0.000010 
0.000011 
0.000011 
0.000012 
0.000013 
0.000014 
0.000014 
0.000015 
0.000016 
0.000017 
0.000018 
0.000019 
0.000020 
0.000021 
0.000022 
0.000023 
0.000025 
0.000026 
0.000027 
0.000029 
0.000030 
0.000032 
0.000034 
0.000035 
0.000037 
0.000039 
0.000041 
0.000043 
0.000045 
0.000047 
0.000050 
0.000052 
0.000054 
0.000057 
0.000060 
0.000062 
0.000065 
0.000068 
0.000071 
0.000074 
0.000078 
0.000081 
0.000084 
0.000088 
0.000092 
0.000096 
0.000099 
0.000104 
0.000108 
0.000112 
0.000116 
0.000121 
0.000126 
0.000130 
0.000135 
0.000140 
0.000146 
0.000151 
0.000156 
0.000162 
0.000168 
0.000174 
0.000180 
0.000186 
0.000192 
0.000198 
0.000205 
0.000212 
0.000218 
0.000225 
0.000232 
0.000240 
0.000247 
0.000254 
0.000262 
0.000270 
0.000277 
0.000285 
0.000293 
0.000301 
0.000310 
0.000318 
0.000327 
0.000335 
0.000344 
0.000353 
0.000361 
0.000370 
0.000379 
0.000389 
0.000398 
0.000407 
0.000416 
0.000426 
0.000435 
0.000445 
0.000454 
0.000464 
0.000474 
0.000483 
0.000493 
0.000503 
0.000513 
0.000522 
0.000532 
0.000542 
0.000552 
0.000562 
0.000572 
0.000581 
0.000591 
0.000601 
0.000611 
0.000620 
0.000630 
0.000640 
0.000649 
0.000659 
0.000668 
0.000677 
0.000687 
0.000696 
0.000705 
0.000714 
0.000723 
0.000732 
0.000741 
0.000749 
0.000758 
0.000766 
0.000775 
0.000783 
0.000791 
0.000799 
0.000806 
0.000814 
0.000821 
0.000829 
0.000836 
0.000843 
0.000849 
0.000856 
0.000863 
0.000869 
0.000875 
0.000881 
0.000886 
0.000892 
0.000897 
0.000902 
0.000907 
0.000912 
0.000917 
0.000921 
0.000925 
0.000929 
0.000932 
0.000936 
0.000939 
0.000942 
0.000945 
0.000947 
0.000950 
0.000952 
0.000954 
0.000955 
0.000957 
0.000958 
0.000959 
0.000959 
0.000960 
0.000960 
0.000000 
0.000000 
0.000000 
0.000000 
0.000000 
0.000000 
0.000000 
0.000000 
0.000000 
0.000000 
0.000000 
0.000000 
0.000000 
0.000000 
0.000000 
0.000000 
0.000000 
0.000000 
0.000000 
0.000000 
0.000000 
0.000000 
0.000000 
0.000000 
0.000000 
0.000000 
0.000000 
0.000000 
0.000000 
0.000000 
0.000000 
0.000000 
0.000000 
0.000000 
0.000000 
0.000000 
0.000000 
0.000000 
0.000000 
0.000000 
0.000000 
0.000000 
0.000000 
0.000000 
0.000000 
0.000000 
0.000000 
0.000000 
0.000000 
0.000000 
0.000000 
0.000000 
0.000000 
0.000000 
0.000000 
0.000000 
0.000000 
0.000000 
0.000000 
0.000000 
0.000000 
0.000000 
0.000000 
0.000000 
0.000000 
0.000000 
0.000000 
0.000000 
0.000000 
0.000000 
0.000000 
0.000000 
0.000000 
0.000000 
0.000000 
0.000000 
0.000001 
0.000001 
0.000001 
0.000001 
0.000001 
0.000001 
0.000001 
0.000001 
0.000001 
0.000001 
0.000001 
0.000001 
0.000001 
0.000001 
0.000002 
0.000002 
0.000002 
0.000002 
0.000002 
0.000002 
0.000002 
0.000003 
0.000003 
0.000003 
0.000003 
0.000003 
0.000004 
0.000004 
0.000004 
0.000004 
0.000005 
0.000005 
0.000005 
0.000006 
0.000006 
0.000007 
0.000007 
0.000008 
0.000008 
0.000009 
0.000009 
0.000010 
0.000010 
0.000011 
0.000012 
0.000013 
0.000013 
0.000014 
0.000015 
0.000016 
0.000017 
0.000018 
0.000019 
0.000020 
0.000022 
0.000023 
0.000024 
0.000026 
0.000027 
0.000029 
0.000030 
0.000032 
0.000034 
0.000036 
0.000038 
0.000040 
0.000042 
0.000045 
0.000047 
0.000050 
0.000052 
0.000055 
0.000058 
0.000061 
0.000064 
0.000068 
0.000071 
0.000075 
0.000078 
0.000082 
0.000086 
0.000091 
0.000095 
0.000100 
0.000104 
0.000109 
0.000114 
0.000120 
0.000125 
0.000131 
0.000137 
0.000143 
0.000149 
0.000156 
0.000163 
0.000169 
0.000177 
0.000184 
0.000192 
0.000200 
0.000208 
0.000216 
0.000225 
0.000234 
0.000243 
0.000252 
0.000262 
0.000272 
0.000282 
0.000292 
0.000303 
0.000314 
0.000325 
0.000337 
0.000349 
0.000361 
0.000373 
0.000385 
0.000398 
0.000411 
0.000425 
0.000438 
0.000452 
0.000466 
0.000481 
0.000495 
0.000510 
0.000525 
0.000541 
0.000556 
0.000572 
0.000588 
0.000605 
0.000621 
0.000638 
0.000655 
0.000672 
0.000690 
0.000707 
0.000725 
0.000743 
0.000761 
0.000779 
0.000798 
0.000816 
0.000835 
0.000854 
0.000873 
0.000892 
0.000911 
0.000930 
0.000950 
0.000969 
0.000988 
0.001008 
0.001028 
0.001047 
0.001067 
0.001086 
0.001106 
0.001126 
0.001145 
0.001165 
0.001185 
0.001204 
0.001224 
0.001243 
0.001262 
0.001282 
0.001301 
0.001320 
0.001338 
0.001357 
0.001376 
0.001394 
0.001413 
0.001431 
0.001448 
0.001466 
0.001484 
0.001501 
0.001518 
0.001535 
0.001551 
0.001568 
0.001584 
0.001599 
0.001615 
0.001630 
0.001645 
0.001659 
0.001674 
0.001688 
0.001701 
0.001714 
0.001727 
0.001740 
0.001752 
0.001764 
0.001775 
0.001786 
0.001797 
0.001807 
0.001817 
0.001826 
0.001835 
0.001844 
0.001852 
0.001860 
0.001867 
0.001874 
0.001880 
0.001886 
0.001892 
0.001897 
0.001901 
0.001906 
0.001909 
0.001913 
0.001915 
0.001918 
0.001920 
0.001921 
0.001922 
0.001922 
0.000000 
0.000000 
0.000000 
0.000000 
0.000000 
0.000000 
0.000000 
0.000000 
0.000000 
0.000000 
0.000000 
0.000000 
0.000000 
0.000000 
0.000000 
0.000000 
0.000000 
0.000000 
0.000000 
0.000000 
0.000000 
0.000000 
0.000000 
0.000000 
0.000000 
0.000000 
0.000000 
0.000000 
0.000000 
0.000000 
0.000000 
0.000000 
0.000000 
0.000000 
0.000000 
0.000000 
0.000000 
0.000000 
0.000000 
0.000000 
0.000000 
0.000000 
0.000000 
0.000000 
0.000000 
0.000000 
0.000000 
0.000000 
0.000000 
0.000000 
0.000000 
0.000000 
0.000000 
0.000000 
0.000000 
0.000000 
0.000000 
0.000000 
0.000000 
0.000000 
0.000000 
0.000000 
0.000000 
0.000000 
0.000000 
0.000000 
0.000000 
0.000000 
0.000000 
0.000000 
0.000000 
0.000001 
0.000001 
0.000001 
0.000001 
0.000001 
0.000001 
0.000001 
0.000001 
0.000001 
0.000001 
0.000001 
0.000001 
0.000001 
0.000001 
0.000002 
0.000002 
0.000002 
0.000002 
0.000002 
0.000002 
0.000002 
0.000003 
0.000003 
0.000003 
0.000003 
0.000004 
0.000004 
0.000004 
0.000004 
0.000005 
0.000005 
0.000005 
0.000006 
0.000006 
0.000007 
0.000007 
0.000008 
0.000008 
0.000009 
0.000009 
0.000010 
0.000011 
0.000011 
0.000012 
0.000013 
0.000014 
0.000015 
0.000016 
0.000017 
0.000018 
0.000019 
0.000020 
0.000021 
0.000023 
0.000024 
0.000026 
0.000027 
0.000029 
0.000031 
0.000033 
0.000035 
0.000037 
0.000039 
0.000041 
0.000044 
0.000046 
0.000049 
0.000052 
0.000054 
0.000058 
0.000061 
0.000064 
0.000068 
0.000071 
0.000075 
0.000079 
0.000083 
0.000088 
0.000092 
0.000097 
0.000102 
0.000107 
0.000113 
0.000119 
0.000124 
0.000131 
0.000137 
0.000144 
0.000151 
0.000158 
0.000165 
0.000173 
0.000181 
0.000189 
0.000198 
0.000207 
0.000216 
0.000225 
0.000235 
0.000245 
0.000256 
0.000267 
0.000278 
0.000290 
0.000302 
0.000314 
0.000326 
0.000339 
0.000353 
0.000367 
0.000381 
0.000395 
0.000410 
0.000426 
0.000441 
0.000457 
0.000474 
0.000491 
0.000508 
0.000526 
0.000544 
0.000563 
0.000581 
0.000601 
0.000621 
0.000641 
0.000661 
0.000682 
0.000703 
0.000725 
0.000747 
0.000769 
0.000792 
0.000815 
0.000839 
0.000863 
0.000887 
0.000912 
0.000937 
0.000962 
0.000987 
0.001013 
0.001039 
0.001066 
0.001092 
0.001119 
0.001147 
0.001174 
0.001202 
0.001230 
0.001258 
0.001286 
0.001314 
0.001343 
0.001372 
0.001401 
0.001430 
0.001459 
0.001488 
0.001518 
0.001547 
0.001577 
0.001606 
0.001636 
0.001665 
0.001695 
0.001724 
0.001754 
0.001783 
0.001812 
0.001841 
0.001870 
0.001899 
0.001928 
0.001957 
0.001985 
0.002014 
0.002042 
0.002070 
0.002097 
0.002125 
0.002152 
0.002179 
0.002205 
0.002231 
0.002257 
0.002283 
0.002308 
0.002333 
0.002357 
0.002381 
0.002405 
0.002428 
0.002451 
0.002473 
0.002495 
0.002516 
0.002537 
0.002557 
0.002577 
0.002596 
0.002615 
0.002633 
0.002651 
0.002668 
0.002685 
0.002700 
0.002716 
0.002730 
0.002745 
0.002758 
0.002771 
0.002783 
0.002795 
0.002806 
0.002816 
0.002826 
0.002834 
0.002843 
0.002850 
0.002857 
0.002864 
0.002869 
0.002874 
0.002878 
0.002882 
0.002884 
0.002887 
0.002888 
0.002889 
0.000000 
0.000000 
0.000000 
0.000000 
0.000000 
0.000000 
0.000000 
0.000000 
0.000000 
0.000000 
0.000000 
0.000000 
0.000000 
0.000000 
0.000000 
0.000000 
0.000000 
0.000000 
0.000000 
0.000000 
0.000000 
0.000000 
0.000000 
0.000000 
0.000000 
0.000000 
0.000000 
0.000000 
0.000000 
0.000000 
0.000000 
0.000000 
0.000000 
0.000000 
0.000000 
0.000000 
0.000000 
0.000000 
0.000000 
0.000000 
0.000000 
0.000000 
0.000000 
0.000000 
0.000000 
0.000000 
0.000000 
0.000000 
0.000000 
0.000000 
0.000000 
0.000000 
0.000000 
0.000000 
0.000000 
0.000000 
0.000000 
0.000000 
0.000000 
0.000000 
0.000000 
0.000000 
0.000000 
0.000000 
0.000000 
0.000000 
0.000000 
0.000000 
0.000001 
0.000001 
0.000001 
0.000001 
0.000001 
0.000001 
0.000001 
0.000001 
0.000001 
0.000001 
0.000001 
0.000001 
0.000001 
0.000002 
0.000002 
0.000002 
0.000002 
0.000002 
0.000002 
0.000002 
0.000003 
0.000003 
0.000003 
0.000003 
0.000004 
0.000004 
0.000004 
0.000004 
0.000005 
0.000005 
0.000005 
0.000006 
0.000006 
0.000007 
0.000007 
0.000008 
0.000008 
0.000009 
0.000010 
0.000010 
0.000011 
0.000012 
0.000013 
0.000013 
0.000014 
0.000015 
0.000016 
0.000017 
0.000019 
0.000020 
0.000021 
0.000023 
0.000024 
0.000026 
0.000027 
0.000029 
0.000031 
0.000033 
0.000035 
0.000037 
0.000039 
0.000042 
0.000044 
0.000047 
0.000049 
0.000052 
0.000055 
0.000059 
0.000062 
0.000066 
0.000069 
0.000073 
0.000078 
0.000082 
0.000086 
0.000091 
0.000096 
0.000101 
0.000107 
0.000112 
0.000118 
0.000125 
0.000131 
0.000138 
0.000145 
0.000152 
0.000160 
0.000168 
0.000176 
0.000185 
0.000193 
0.000203 
0.000212 
0.000222 
0.000233 
0.000244 
0.000255 
0.000266 
0.000278 
0.000291 
0.000303 
0.000317 
0.000330 
0.000345 
0.000359 
0.000374 
0.000390 
0.000406 
0.000422 
0.000439 
0.000457 
0.000475 
0.000493 
0.000512 
0.000532 
0.000552 
0.000572 
0.000594 
0.000615 
0.000637 
0.000660 
0.000683 
0.000707 
0.000731 
0.000756 
0.000782 
0.000807 
0.000834 
0.000861 
0.000888 
0.000916 
0.000945 
0.000974 
0.001004 
0.001034 
0.001064 
0.001095 
0.001127 
0.001159 
0.001191 
0.001224 
0.001257 
0.001291 
0.001325 
0.001360 
0.001395 
0.001430 
0.001466 
0.001502 
0.001538 
0.001575 
0.001612 
0.001649 
0.001687 
0.001725 
0.001763 
0.001801 
0.001840 
0.001878 
0.001917 
0.001956 
0.001995 
0.002034 
0.002074 
0.002113 
0.002152 
0.002192 
0.002231 
0.002271 
0.002310 
0.002349 
0.002388 
0.002428 
0.002466 
0.002505 
0.002544 
0.002582 
0.002621 
0.002659 
0.002696 
0.002734 
0.002771 
0.002808 
0.002844 
0.002880 
0.002916 
0.002952 
0.002986 
0.003021 
0.003055 
0.003089 
0.003122 
0.003154 
0.003186 
0.003218 
0.003248 
0.003279 
0.003308 
0.003337 
0.003366 
0.003393 
0.003420 
0.003447 
0.003473 
0.003497 
0.003522 
0.003545 
0.003568 
0.003590 
0.003611 
0.003631 
0.003651 
0.003670 
0.003688 
0.003705 
0.003721 
0.003736 
0.003751 
0.003765 
0.003777 
0.003789 
0.003800 
0.003810 
0.003820 
0.003828 
0.003835 
0.003842 
0.003847 
0.003852 
0.003856 
0.003858 
0.003860 
0.003861 
0.000000 
0.000000 
0.000000 
0.000000 
0.000000 
0.000000 
0.000000 
0.000000 
0.000000 
0.000000 
0.000000 
0.000000 
0.000000 
0.000000 
0.000000 
0.000000 
0.000000 
0.000000 
0.000000 
0.000000 
0.000000 
0.000000 
0.000000 
0.000000 
0.000000 
0.000000 
0.000000 
0.000000 
0.000000 
0.000000 
0.000000 
0.000000 
0.000000 
0.000000 
0.000000 
0.000000 
0.000000 
0.000000 
0.000000 
0.000000 
0.000000 
0.000000 
0.000000 
0.000000 
0.000000 
0.000000 
0.000000 
0.000000 
0.000000 
0.000000 
0.000000 
0.000000 
0.000000 
0.000000 
0.000000 
0.000000 
0.000000 
0.000000 
0.000000 
0.000000 
0.000000 
0.000000 
0.000000 
0.000000 
0.000000 
0.000001 
0.000001 
0.000001 
0.000001 
0.000001 
0.000001 
0.000001 
0.000001 
0.000001 
0.000001 
0.000001 
0.000001 
0.000001 
0.000002 
0.000002 
0.000002 
0.000002 
0.000002 
0.000002 
0.000002 
0.000003 
0.000003 
0.000003 
0.000003 
0.000004 
0.000004 
0.000004 
0.000005 
0.000005 
0.000005 
0.000006 
0.000006 
0.000006 
0.000007 
0.000007 
0.000008 
0.000009 
0.000009 
0.000010 
0.000011 
0.000011 
0.000012 
0.000013 
0.000014 
0.000015 
0.000016 
0.000017 
0.000018 
0.000019 
0.000021 
0.000022 
0.000024 
0.000025 
0.000027 
0.000029 
0.000030 
0.000032 
0.000034 
0.000037 
0.000039 
0.000041 
0.000044 
0.000047 
0.000050 
0.000053 
0.000056 
0.000059 
0.000063 
0.000066 
0.000070 
0.000074 
0.000079 
0.000083 
0.000088 
0.000093 
0.000098 
0.000104 
0.000109 
0.000115 
0.000122 
0.000128 
0.000135 
0.000142 
0.000150 
0.000158 
0.000166 
0.000174 
0.000183 
0.000193 
0.000202 
0.000212 
0.000223 
0.000234 
0.000245 
0.000257 
0.000269 
0.000282 
0.000295 
0.000308 
0.000322 
0.000337 
0.000352 
0.000368 
0.000384 
0.000401 
0.000418 
0.000436 
0.000454 
0.000473 
0.000493 
0.000513 
0.000534 
0.000555 
0.000578 
0.000600 
0.000624 
0.000648 
0.000672 
0.000698 
0.000723 
0.000750 
0.000777 
0.000805 
0.000834 
0.000863 
0.000893 
0.000924 
0.000955 
0.000987 
0.001020 
0.001053 
0.001087 
0.001122 
0.001157 
0.001193 
0.001229 
0.001266 
0.001304 
0.001343 
0.001382 
0.001421 
0.001461 
0.001502 
0.001544 
0.001585 
0.001628 
0.001671 
0.001714 
0.001758 
0.001803 
0.001847 
0.001893 
0.001938 
0.001984 
0.002031 
0.002078 
0.002125 
0.002172 
0.002220 
0.002268 
0.002316 
0.002365 
0.002413 
0.002462 
0.002511 
0.002560 
0.002610 
0.002659 
0.002708 
0.002758 
0.002807 
0.002856 
0.002906 
0.002955 
0.003004 
0.003053 
0.003101 
0.003150 
0.003198 
0.003246 
0.003294 
0.003342 
0.003389 
0.003436 
0.003482 
0.003528 
0.003574 
0.003619 
0.003664 
0.003708 
0.003751 
0.003794 
0.003837 
0.003879 
0.003920 
0.003961 
0.004001 
0.004040 
0.004078 
0.004116 
0.004153 
0.004189 
0.004225 
0.004259 
0.004293 
0.004326 
0.004358 
0.004389 
0.004419 
0.004449 
0.004477 
0.004504 
0.004531 
0.004556 
0.004581 
0.004604 
0.004626 
0.004648 
0.004668 
0.004687 
0.004705 
0.004722 
0.004738 
0.004753 
0.004767 
0.004779 
0.004791 
0.004801 
0.004810 
0.004818 
0.004825 
0.004831 
0.004836 
0.004839 
0.004842 
0.004843 
0.000000 
0.000000 
0.000000 
0.000000 
0.000000 
0.000000 
0.000000 
0.000000 
0.000000 
0.000000 
0.000000 
0.000000 
0.000000 
0.000000 
0.000000 
0.000000 
0.000000 
0.000000 
0.000000 
0.000000 
0.000000 
0.000000 
0.000000 
0.000000 
0.000000 
0.000000 
0.000000 
0.000000 
0.000000 
0.000000 
0.000000 
0.000000 
0.000000 
0.000000 
0.000000 
0.000000 
0.000000 
0.000000 
0.000000 
0.000000 
0.000000 
0.000000 
0.000000 
0.000000 
0.000000 
0.000000 
0.000000 
0.000000 
0.000000 
0.000000 
0.000000 
0.000000 
0.000000 
0.000000 
0.000000 
0.000000 
0.000000 
0.000000 
0.000000 
0.000000 
0.000000 
0.000000 
0.000001 
0.000001 
0.000001 
0.000001 
0.000001 
0.000001 
0.000001 
0.000001 
0.000001 
0.000001 
0.000001 
0.000001 
0.000001 
0.000001 
0.000002 
0.000002 
0.000002 
0.000002 
0.000002 
0.000002 
0.000003 
0.000003 
0.000003 
0.000003 
0.000004 
0.000004 
0.000004 
0.000004 
0.000005 
0.000005 
0.000006 
0.000006 
0.000006 
0.000007 
0.000007 
0.000008 
0.000009 
0.000009 
0.000010 
0.000011 
0.000011 
0.000012 
0.000013 
0.000014 
0.000015 
0.000016 
0.000017 
0.000018 
0.000020 
0.000021 
0.000022 
0.000024 
0.000025 
0.000027 
0.000029 
0.000031 
0.000033 
0.000035 
0.000037 
0.000040 
0.000042 
0.000045 
0.000048 
0.000051 
0.000054 
0.000057 
0.000061 
0.000064 
0.000068 
0.000072 
0.000077 
0.000081 
0.000086 
0.000091 
0.000096 
0.000102 
0.000107 
0.000114 
0.000120 
0.000127 
0.000134 
0.000141 
0.000149 
0.000157 
0.000165 
0.000174 
0.000183 
0.000192 
0.000202 
0.000213 
0.000224 
0.000235 
0.000247 
0.000259 
0.000272 
0.000285 
0.000299 
0.000313 
0.000328 
0.000343 
0.000359 
0.000376 
0.000393 
0.000411 
0.000429 
0.000448 
0.000468 
0.000488 
0.000509 
0.000531 
0.000553 
0.000576 
0.000600 
0.000625 
0.000650 
0.000676 
0.000703 
0.000730 
0.000759 
0.000788 
0.000818 
0.000848 
0.000880 
0.000912 
0.000945 
0.000979 
0.001014 
0.001049 
0.001086 
0.001123 
0.001161 
0.001199 
0.001239 
0.001279 
0.001320 
0.001362 
0.001405 
0.001448 
0.001492 
0.001537 
0.001583 
0.001630 
0.001677 
0.001725 
0.001773 
0.001822 
0.001872 
0.001923 
0.001974 
0.002026 
0.002078 
0.002131 
0.002185 
0.002239 
0.002294 
0.002349 
0.002404 
0.002460 
0.002517 
0.002574 
0.002631 
0.002688 
0.002746 
0.002804 
0.002863 
0.002921 
0.002980 
0.003039 
0.003098 
0.003157 
0.003217 
0.003276 
0.003335 
0.003395 
0.003454 
0.003513 
0.003572 
0.003631 
0.003690 
0.003749 
0.003807 
0.003865 
0.003923 
0.003980 
0.004037 
0.004094 
0.004150 
0.004206 
0.004261 
0.004316 
0.004370 
0.004423 
0.004476 
0.004529 
0.004580 
0.004631 
0.004681 
0.004731 
0.004779 
0.004827 
0.004874 
0.004920 
0.004966 
0.005010 
0.005053 
0.005096 
0.005137 
0.005178 
0.005217 
0.005255 
0.005293 
0.005329 
0.005364 
0.005398 
0.005430 
0.005462 
0.005492 
0.005522 
0.005550 
0.005576 
0.005602 
0.005626 
0.005649 
0.005671 
0.005691 
0.005710 
0.005728 
0.005744 
0.005759 
0.005773 
0.005785 
0.005796 
0.005806 
0.005814 
0.005821 
0.005827 
0.005831 
0.005834 
0.005835 
0.000000 
0.000000 
0.000000 
0.000000 
0.000000 
0.000000 
0.000000 
0.000000 
0.000000 
0.000000 
0.000000 
0.000000 
0.000000 
0.000000 
0.000000 
0.000000 
0.000000 
0.000000 
0.000000 
0.000000 
0.000000 
0.000000 
0.000000 
0.000000 
0.000000 
0.000000 
0.000000 
0.000000 
0.000000 
0.000000 
0.000000 
0.000000 
0.000000 
0.000000 
0.000000 
0.000000 
0.000000 
0.000000 
0.000000 
0.000000 
0.000000 
0.000000 
0.000000 
0.000000 
0.000000 
0.000000 
0.000000 
0.000000 
0.000000 
0.000000 
0.000000 
0.000000 
0.000000 
0.000000 
0.000000 
0.000000 
0.000000 
0.000000 
0.000000 
0.000000 
0.000001 
0.000001 
0.000001 
0.000001 
0.000001 
0.000001 
0.000001 
0.000001 
0.000001 
0.000001 
0.000001 
0.000001 
0.000001 
0.000002 
0.000002 
0.000002 
0.000002 
0.000002 
0.000002 
0.000002 
0.000003 
0.000003 
0.000003 
0.000003 
0.000004 
0.000004 
0.000004 
0.000005 
0.000005 
0.000005 
0.000006 
0.000006 
0.000007 
0.000007 
0.000008 
0.000008 
0.000009 
0.000009 
0.000010 
0.000011 
0.000012 
0.000013 
0.000013 
0.000014 
0.000015 
0.000017 
0.000018 
0.000019 
0.000020 
0.000022 
0.000023 
0.000025 
0.000027 
0.000028 
0.000030 
0.000032 
0.000034 
0.000037 
0.000039 
0.000042 
0.000044 
0.000047 
0.000050 
0.000053 
0.000057 
0.000060 
0.000064 
0.000068 
0.000072 
0.000077 
0.000081 
0.000086 
0.000091 
0.000097 
0.000102 
0.000108 
0.000114 
0.000121 
0.000128 
0.000135 
0.000143 
0.000151 
0.000159 
0.000168 
0.000177 
0.000186 
0.000196 
0.000207 
0.000218 
0.000229 
0.000241 
0.000253 
0.000266 
0.000279 
0.000293 
0.000308 
0.000323 
0.000339 
0.000355 
0.000372 
0.000389 
0.000408 
0.000427 
0.000446 
0.000467 
0.000488 
0.000509 
0.000532 
0.000555 
0.000579 
0.000604 
0.000630 
0.000656 
0.000684 
0.000712 
0.000741 
0.000771 
0.000802 
0.000833 
0.000866 
0.000900 
0.000934 
0.000969 
0.001006 
0.001043 
0.001081 
0.001120 
0.001160 
0.001201 
0.001243 
0.001285 
0.001329 
0.001374 
0.001420 
0.001466 
0.001514 
0.001562 
0.001612 
0.001662 
0.001713 
0.001765 
0.001818 
0.001872 
0.001926 
0.001982 
0.002038 
0.002095 
0.002153 
0.002212 
0.002272 
0.002332 
0.002393 
0.002454 
0.002516 
0.002579 
0.002643 
0.002707 
0.002772 
0.002837 
0.002903 
0.002969 
0.003035 
0.003102 
0.003170 
0.003238 
0.003306 
0.003374 
0.003443 
0.003512 
0.003581 
0.003650 
0.003719 
0.003789 
0.003858 
0.003927 
0.003997 
0.004066 
0.004135 
0.004204 
0.004273 
0.004342 
0.004410 
0.004479 
0.004546 
0.004614 
0.004681 
0.004747 
0.004813 
0.004879 
0.004944 
0.005008 
0.005072 
0.005135 
0.005198 
0.005260 
0.005321 
0.005381 
0.005440 
0.005499 
0.005556 
0.005613 
0.005669 
0.005723 
0.005777 
0.005830 
0.005881 
0.005932 
0.005981 
0.006030 
0.006077 
0.006122 
0.006167 
0.006210 
0.006252 
0.006293 
0.006333 
0.006371 
0.006407 
0.006443 
0.006477 
0.006509 
0.006540 
0.006570 
0.006598 
0.006625 
0.006650 
0.006674 
0.006696 
0.006716 
0.006735 
0.006753 
0.006769 
0.006783 
0.006796 
0.006807 
0.006817 
0.006825 
0.006831 
0.006836 
0.006839 
0.006841 
0.000000 
0.000000 
0.000000 
0.000000 
0.000000 
0.000000 
0.000000 
0.000000 
0.000000 
0.000000 
0.000000 
0.000000 
0.000000 
0.000000 
0.000000 
0.000000 
0.000000 
0.000000 
0.000000 
0.000000 
0.000000 
0.000000 
0.000000 
0.000000 
0.000000 
0.000000 
0.000000 
0.000000 
0.000000 
0.000000 
0.000000 
0.000000 
0.000000 
0.000000 
0.000000 
0.000000 
0.000000 
0.000000 
0.000000 
0.000000 
0.000000 
0.000000 
0.000000 
0.000000 
0.000000 
0.000000 
0.000000 
0.000000 
0.000000 
0.000000 
0.000000 
0.000000 
0.000000 
0.000000 
0.000000 
0.000000 
0.000000 
0.000000 
0.000001 
0.000001 
0.000001 
0.000001 
0.000001 
0.000001 
0.000001 
0.000001 
0.000001 
0.000001 
0.000001 
0.000001 
0.000001 
0.000002 
0.000002 
0.000002 
0.000002 
0.000002 
0.000002 
0.000002 
0.000003 
0.000003 
0.000003 
0.000003 
0.000004 
0.000004 
0.000004 
0.000005 
0.000005 
0.000005 
0.000006 
0.000006 
0.000007 
0.000007 
0.000008 
0.000008 
0.000009 
0.000010 
0.000010 
0.000011 
0.000012 
0.000013 
0.000014 
0.000015 
0.000016 
0.000017 
0.000018 
0.000019 
0.000021 
0.000022 
0.000024 
0.000025 
0.000027 
0.000029 
0.000031 
0.000033 
0.000035 
0.000038 
0.000040 
0.000043 
0.000046 
0.000049 
0.000052 
0.000055 
0.000059 
0.000062 
0.000066 
0.000071 
0.000075 
0.000080 
0.000084 
0.000090 
0.000095 
0.000101 
0.000107 
0.000113 
0.000120 
0.000127 
0.000134 
0.000141 
0.000150 
0.000158 
0.000167 
0.000176 
0.000186 
0.000196 
0.000207 
0.000218 
0.000229 
0.000241 
0.000254 
0.000267 
0.000281 
0.000295 
0.000310 
0.000326 
0.000342 
0.000359 
0.000377 
0.000395 
0.000414 
0.000434 
0.000454 
0.000476 
0.000498 
0.000520 
0.000544 
0.000569 
0.000594 
0.000620 
0.000647 
0.000675 
0.000704 
0.000734 
0.000765 
0.000797 
0.000829 
0.000863 
0.000898 
0.000934 
0.000970 
0.001008 
0.001047 
0.001087 
0.001128 
0.001170 
0.001213 
0.001257 
0.001302 
0.001349 
0.001396 
0.001445 
0.001494 
0.001545 
0.001597 
0.001649 
0.001703 
0.001758 
0.001814 
0.001871 
0.001929 
0.001989 
0.002049 
0.002110 
0.002172 
0.002235 
0.002299 
0.002364 
0.002430 
0.002497 
0.002565 
0.002633 
0.002703 
0.002773 
0.002844 
0.002915 
0.002988 
0.003061 
0.003135 
0.003209 
0.003284 
0.003360 
0.003436 
0.003512 
0.003589 
0.003667 
0.003745 
0.003823 
0.003902 
0.003980 
0.004059 
0.004139 
0.004218 
0.004297 
0.004377 
0.004457 
0.004536 
0.004616 
0.004695 
0.004774 
0.004854 
0.004932 
0.005011 
0.005089 
0.005167 
0.005245 
0.005322 
0.005399 
0.005475 
0.005550 
0.005625 
0.005700 
0.005773 
0.005846 
0.005918 
0.005990 
0.006060 
0.006130 
0.006199 
0.006266 
0.006333 
0.006399 
0.006464 
0.006527 
0.006590 
0.006651 
0.006711 
0.006770 
0.006827 
0.006884 
0.006939 
0.006992 
0.007044 
0.007095 
0.007145 
0.007193 
0.007239 
0.007284 
0.007327 
0.007369 
0.007409 
0.007448 
0.007485 
0.007520 
0.007554 
0.007586 
0.007617 
0.007645 
0.007672 
0.007697 
0.007721 
0.007743 
0.007762 
0.007781 
0.007797 
0.007812 
0.007824 
0.007835 
0.007844 
0.007852 
0.007857 
0.007861 
0.007863 
0.000000 
0.000000 
0.000000 
0.000000 
0.000000 
0.000000 
0.000000 
0.000000 
0.000000 
0.000000 
0.000000 
0.000000 
0.000000 
0.000000 
0.000000 
0.000000 
0.000000 
0.000000 
0.000000 
0.000000 
0.000000 
0.000000 
0.000000 
0.000000 
0.000000 
0.000000 