# vtk DataFile Version 3.0
results.vtk
ASCII
DATASET RECTILINEAR_GRID
DIMENSIONS 301 301 1
X_COORDINATES 301 double
0.000000 0.003333 0.006667 0.010000 0.013333 0.016667 0.020000 0.023333 0.026667 0.030000 0.033333 0.036667 0.040000 0.043333 0.046667 0.050000 0.053333 0.056667 0.060000 0.063333 0.066667 0.070000 0.073333 0.076667 0.080000 0.083333 0.086667 0.090000 0.093333 0.096667 0.100000 0.103333 0.106667 0.110000 0.113333 0.116667 0.120000 0.123333 0.126667 0.130000 0.133333 0.136667 0.140000 0.143333 0.146667 0.150000 0.153333 0.156667 0.160000 0.163333 0.166667 0.170000 0.173333 0.176667 0.180000 0.183333 0.186667 0.190000 0.193333 0.196667 0.200000 0.203333 0.206667 0.210000 0.213333 0.216667 0.220000 0.223333 0.226667 0.230000 0.233333 0.236667 0.240000 0.243333 0.246667 0.250000 0.253333 0.256667 0.260000 0.263333 0.266667 0.270000 0.273333 0.276667 0.280000 0.283333 0.286667 0.290000 0.293333 0.296667 0.300000 0.303333 0.306667 0.310000 0.313333 0.316667 0.320000 0.323333 0.326667 0.330000 0.333333 0.336667 0.340000 0.343333 0.346667 0.350000 0.353333 0.356667 0.360000 0.363333 0.366667 0.370000 0.373333 0.376667 0.380000 0.383333 0.386667 0.390000 0.393333 0.396667 0.400000 0.403333 0.406667 0.410000 0.413333 0.416667 0.420000 0.423333 0.426667 0.430000 0.433333 0.436667 0.440000 0.443333 0.446667 0.450000 0.453333 0.456667 0.460000 0.463333 0.466667 0.470000 0.473333 0.476667 0.480000 0.483333 0.486667 0.490000 0.493333 0.496667 0.500000 0.503333 0.506667 0.510000 0.513333 0.516667 0.520000 0.523333 0.526667 0.530000 0.533333 0.536667 0.540000 0.543333 0.546667 0.550000 0.553333 0.556667 0.560000 0.563333 0.566667 0.570000 0.573333 0.576667 0.580000 0.583333 0.586667 0.590000 0.593333 0.596667 0.600000 0.603333 0.606667 0.610000 0.613333 0.616667 0.620000 0.623333 0.626667 0.630000 0.633333 0.636667 0.640000 0.643333 0.646667 0.650000 0.653333 0.656667 0.660000 0.663333 0.666667 0.670000 0.673333 0.676667 0.680000 0.683333 0.686667 0.690000 0.693333 0.696667 0.700000 0.703333 0.706667 0.710000 0.713333 0.716667 0.720000 0.723333 0.726667 0.730000 0.733333 0.736667 0.740000 0.743333 0.746667 0.750000 0.753333 0.756667 0.760000 0.763333 0.766667 0.770000 0.773333 0.776667 0.780000 0.783333 0.786667 0.790000 0.793333 0.796667 0.800000 0.803333 0.806667 0.810000 0.813333 0.816667 0.820000 0.823333 0.826667 0.830000 0.833333 0.836667 0.840000 0.843333 0.846667 0.850000 0.853333 0.856667 0.860000 0.863333 0.866667 0.870000 0.873333 0.876667 0.880000 0.883333 0.886667 0.890000 0.893333 0.896667 0.900000 0.903333 0.906667 0.910000 0.913333 0.916667 0.920000 0.923333 0.926667 0.930000 0.933333 0.936667 0.940000 0.943333 0.946667 0.950000 0.953333 0.956667 0.960000 0.963333 0.966667 0.970000 0.973333 0.976667 0.980000 0.983333 0.986667 0.990000 0.993333 0.996667 1.000000 
Y_COORDINATES 301 double
0.000000 0.003333 0.006667 0.010000 0.013333 0.016667 0.020000 0.023333 0.026667 0.030000 0.033333 0.036667 0.040000 0.043333 0.046667 0.050000 0.053333 0.056667 0.060000 0.063333 0.066667 0.070000 0.073333 0.076667 0.080000 0.083333 0.086667 0.090000 0.093333 0.096667 0.100000 0.103333 0.106667 0.110000 0.113333 0.116667 0.120000 0.123333 0.126667 0.130000 0.133333 0.136667 0.140000 0.143333 0.146667 0.150000 0.153333 0.156667 0.160000 0.163333 0.166667 0.170000 0.173333 0.176667 0.180000 0.183333 0.186667 0.190000 0.193333 0.196667 0.200000 0.203333 0.206667 0.210000 0.213333 0.216667 0.220000 0.223333 0.226667 0.230000 0.233333 0.236667 0.240000 0.243333 0.246667 0.250000 0.253333 0.256667 0.260000 0.263333 0.266667 0.270000 0.273333 0.276667 0.280000 0.283333 0.286667 0.290000 0.293333 0.296667 0.300000 0.303333 0.306667 0.310000 0.313333 0.316667 0.320000 0.323333 0.326667 0.330000 0.333333 0.336667 0.340000 0.343333 0.346667 0.350000 0.353333 0.356667 0.360000 0.363333 0.366667 0.370000 0.373333 0.376667 0.380000 0.383333 0.386667 0.390000 0.393333 0.396667 0.400000 0.403333 0.406667 0.410000 0.413333 0.416667 0.420000 0.423333 0.426667 0.430000 0.433333 0.436667 0.440000 0.443333 0.446667 0.450000 0.453333 0.456667 0.460000 0.463333 0.466667 0.470000 0.473333 0.476667 0.480000 0.483333 0.486667 0.490000 0.493333 0.496667 0.500000 0.503333 0.506667 0.510000 0.513333 0.516667 0.520000 0.523333 0.526667 0.530000 0.533333 0.536667 0.540000 0.543333 0.546667 0.550000 0.553333 0.556667 0.560000 0.563333 0.566667 0.570000 0.573333 0.576667 0.580000 0.583333 0.586667 0.590000 0.593333 0.596667 0.600000 0.603333 0.606667 0.610000 0.613333 0.616667 0.620000 0.623333 0.626667 0.630000 0.633333 0.636667 0.640000 0.643333 0.646667 0.650000 0.653333 0.656667 0.660000 0.663333 0.666667 0.670000 0.673333 0.676667 0.680000 0.683333 0.686667 0.690000 0.693333 0.696667 0.700000 0.703333 0.706667 0.710000 0.713333 0.716667 0.720000 0.723333 0.726667 0.730000 0.733333 0.736667 0.740000 0.743333 0.746667 0.750000 0.753333 0.756667 0.760000 0.763333 0.766667 0.770000 0.773333 0.776667 0.780000 0.783333 0.786667 0.790000 0.793333 0.796667 0.800000 0.803333 0.806667 0.810000 0.813333 0.816667 0.820000 0.823333 0.826667 0.830000 0.833333 0.836667 0.840000 0.843333 0.846667 0.850000 0.853333 0.856667 0.860000 0.863333 0.866667 0.870000 0.873333 0.876667 0.880000 0.883333 0.886667 0.890000 0.893333 0.896667 0.900000 0.903333 0.906667 0.910000 0.913333 0.916667 0.920000 0.923333 0.926667 0.930000 0.933333 0.936667 0.940000 0.943333 0.946667 0.950000 0.953333 0.956667 0.960000 0.963333 0.966667 0.970000 0.973333 0.976667 0.980000 0.983333 0.986667 0.990000 0.993333 0.996667 1.000000 
Z_COORDINATES 1 double
0
POINT_DATA 90601 
FIELD FieldData 1 
Concentração 1 90601 double 
0.000000 
0.000000 
0.000000 
0.000000 
0.000000 
0.000000 
0.000000 
0.000000 
0.000000 
0.000000 
0.000000 
0.000000 
0.000000 
0.000000 
0.000000 
0.000000 
0.000000 
0.000000 
0.000000 
0.000000 
0.000000 
0.000000 
0.000000 
0.000000 
0.000000 
0.000000 
0.000000 
0.000000 
0.000000 
0.000000 
0.000000 
0.000000 
0.000000 
0.000000 
0.000000 
0.000000 
0.000000 
0.000000 
0.000000 
0.000000 
0.000000 
0.000000 
0.000000 
0.000000 
0.000000 
0.000000 
0.000000 
0.000000 
0.000000 
0.000000 
0.000000 
0.000000 
0.000000 
0.000000 
0.000000 
0.000000 
0.000000 
0.000000 
0.000000 
0.000000 
0.000000 
0.000000 
0.000000 
0.000000 
0.000000 
0.000000 
0.000000 
0.000000 
0.000000 
0.000000 
0.000000 
0.000000 
0.000000 
0.000000 
0.000000 
0.000000 
0.000000 
0.000000 
0.000000 
0.000000 
0.000000 
0.000000 
0.000000 
0.000001 
0.000001 
0.000001 
0.000001 
0.000001 
0.000001 
0.000001 
0.000001 
0.000001 
0.000001 
0.000001 
0.000001 
0.000001 
0.000001 
0.000001 
0.000002 
0.000002 
0.000002 
0.000002 
0.000002 
0.000002 
0.000002 
0.000003 
0.000003 
0.000003 
0.000003 
0.000003 
0.000004 
0.000004 
0.000004 
0.000004 
0.000005 
0.000005 
0.000005 
0.000006 
0.000006 
0.000006 
0.000007 
0.000007 
0.000008 
0.000008 
0.000009 
0.000009 
0.000010 
0.000011 
0.000011 
0.000012 
0.000013 
0.000013 
0.000014 
0.000015 
0.000016 
0.000017 
0.000018 
0.000019 
0.000020 
0.000021 
0.000022 
0.000023 
0.000025 
0.000026 
0.000027 
0.000029 
0.000030 
0.000032 
0.000034 
0.000035 
0.000037 
0.000039 
0.000041 
0.000043 
0.000045 
0.000048 
0.000050 
0.000052 
0.000055 
0.000058 
0.000060 
0.000063 
0.000066 
0.000069 
0.000072 
0.000075 
0.000079 
0.000082 
0.000086 
0.000090 
0.000093 
0.000097 
0.000101 
0.000106 
0.000110 
0.000114 
0.000119 
0.000124 
0.000129 
0.000134 
0.000139 
0.000144 
0.000150 
0.000155 
0.000161 
0.000167 
0.000173 
0.000179 
0.000185 
0.000192 
0.000198 
0.000205 
0.000212 
0.000219 
0.000226 
0.000234 
0.000241 
0.000249 
0.000257 
0.000264 
0.000272 
0.000281 
0.000289 
0.000297 
0.000306 
0.000315 
0.000323 
0.000332 
0.000341 
0.000351 
0.000360 
0.000369 
0.000379 
0.000388 
0.000398 
0.000408 
0.000418 
0.000428 
0.000438 
0.000448 
0.000458 
0.000469 
0.000479 
0.000489 
0.000500 
0.000510 
0.000521 
0.000532 
0.000542 
0.000553 
0.000564 
0.000574 
0.000585 
0.000596 
0.000607 
0.000617 
0.000628 
0.000639 
0.000650 
0.000660 
0.000671 
0.000682 
0.000692 
0.000703 
0.000713 
0.000723 
0.000734 
0.000744 
0.000754 
0.000764 
0.000774 
0.000784 
0.000794 
0.000804 
0.000813 
0.000823 
0.000832 
0.000841 
0.000850 
0.000859 
0.000868 
0.000877 
0.000885 
0.000894 
0.000902 
0.000910 
0.000918 
0.000925 
0.000933 
0.000940 
0.000947 
0.000954 
0.000961 
0.000967 
0.000974 
0.000980 
0.000986 
0.000991 
0.000997 
0.001002 
0.001007 
0.001012 
0.001017 
0.001021 
0.001025 
0.001029 
0.001033 
0.001036 
0.001039 
0.001042 
0.001045 
0.001048 
0.001050 
0.001052 
0.001054 
0.001055 
0.001056 
0.001057 
0.001058 
0.001059 
0.001059 
0.000000 
0.000000 
0.000000 
0.000000 
0.000000 
0.000000 
0.000000 
0.000000 
0.000000 
0.000000 
0.000000 
0.000000 
0.000000 
0.000000 
0.000000 
0.000000 
0.000000 
0.000000 
0.000000 
0.000000 
0.000000 
0.000000 
0.000000 
0.000000 
0.000000 
0.000000 
0.000000 
0.000000 
0.000000 
0.000000 
0.000000 
0.000000 
0.000000 
0.000000 
0.000000 
0.000000 
0.000000 
0.000000 
0.000000 
0.000000 
0.000000 
0.000000 
0.000000 
0.000000 
0.000000 
0.000000 
0.000000 
0.000000 
0.000000 
0.000000 
0.000000 
0.000000 
0.000000 
0.000000 
0.000000 
0.000000 
0.000000 
0.000000 
0.000000 
0.000000 
0.000000 
0.000000 
0.000000 
0.000000 
0.000000 
0.000000 
0.000000 
0.000000 
0.000000 
0.000000 
0.000000 
0.000000 
0.000000 
0.000000 
0.000001 
0.000001 
0.000001 
0.000001 
0.000001 
0.000001 
0.000001 
0.000001 
0.000001 
0.000001 
0.000001 
0.000001 
0.000001 
0.000001 
0.000002 
0.000002 
0.000002 
0.000002 
0.000002 
0.000002 
0.000002 
0.000003 
0.000003 
0.000003 
0.000003 
0.000003 
0.000004 
0.000004 
0.000004 
0.000005 
0.000005 
0.000005 
0.000006 
0.000006 
0.000006 
0.000007 
0.000007 
0.000008 
0.000008 
0.000009 
0.000009 
0.000010 
0.000011 
0.000011 
0.000012 
0.000013 
0.000014 
0.000015 
0.000016 
0.000017 
0.000018 
0.000019 
0.000020 
0.000021 
0.000023 
0.000024 
0.000025 
0.000027 
0.000028 
0.000030 
0.000032 
0.000034 
0.000036 
0.000038 
0.000040 
0.000042 
0.000044 
0.000047 
0.000050 
0.000052 
0.000055 
0.000058 
0.000061 
0.000064 
0.000068 
0.000071 
0.000075 
0.000079 
0.000083 
0.000087 
0.000091 
0.000096 
0.000100 
0.000105 
0.000110 
0.000116 
0.000121 
0.000127 
0.000133 
0.000139 
0.000145 
0.000151 
0.000158 
0.000165 
0.000172 
0.000180 
0.000188 
0.000195 
0.000204 
0.000212 
0.000221 
0.000230 
0.000239 
0.000249 
0.000258 
0.000269 
0.000279 
0.000290 
0.000300 
0.000312 
0.000323 
0.000335 
0.000347 
0.000359 
0.000372 
0.000385 
0.000398 
0.000412 
0.000426 
0.000440 
0.000454 
0.000469 
0.000484 
0.000499 
0.000515 
0.000530 
0.000547 
0.000563 
0.000580 
0.000596 
0.000614 
0.000631 
0.000649 
0.000667 
0.000685 
0.000703 
0.000722 
0.000741 
0.000760 
0.000779 
0.000798 
0.000818 
0.000838 
0.000858 
0.000878 
0.000898 
0.000919 
0.000940 
0.000960 
0.000981 
0.001002 
0.001023 
0.001044 
0.001066 
0.001087 
0.001108 
0.001130 
0.001151 
0.001173 
0.001194 
0.001216 
0.001237 
0.001259 
0.001280 
0.001302 
0.001323 
0.001344 
0.001365 
0.001386 
0.001407 
0.001428 
0.001449 
0.001470 
0.001490 
0.001511 
0.001531 
0.001551 
0.001571 
0.001590 
0.001609 
0.001629 
0.001648 
0.001666 
0.001685 
0.001703 
0.001721 
0.001738 
0.001755 
0.001772 
0.001789 
0.001805 
0.001821 
0.001837 
0.001852 
0.001867 
0.001882 
0.001896 
0.001910 
0.001924 
0.001937 
0.001949 
0.001961 
0.001973 
0.001985 
0.001996 
0.002006 
0.002016 
0.002026 
0.002035 
0.002044 
0.002052 
0.002060 
0.002067 
0.002074 
0.002081 
0.002087 
0.002092 
0.002097 
0.002101 
0.002105 
0.002109 
0.002112 
0.002114 
0.002116 
0.002118 
0.002119 
0.002119 
0.000000 
0.000000 
0.000000 
0.000000 
0.000000 
0.000000 
0.000000 
0.000000 
0.000000 
0.000000 
0.000000 
0.000000 
0.000000 
0.000000 
0.000000 
0.000000 
0.000000 
0.000000 
0.000000 
0.000000 
0.000000 
0.000000 
0.000000 
0.000000 
0.000000 
0.000000 
0.000000 
0.000000 
0.000000 
0.000000 
0.000000 
0.000000 
0.000000 
0.000000 
0.000000 
0.000000 
0.000000 
0.000000 
0.000000 
0.000000 
0.000000 
0.000000 
0.000000 
0.000000 
0.000000 
0.000000 
0.000000 
0.000000 
0.000000 
0.000000 
0.000000 
0.000000 
0.000000 
0.000000 
0.000000 
0.000000 
0.000000 
0.000000 
0.000000 
0.000000 
0.000000 
0.000000 
0.000000 
0.000000 
0.000000 
0.000000 
0.000000 
0.000000 
0.000000 
0.000001 
0.000001 
0.000001 
0.000001 
0.000001 
0.000001 
0.000001 
0.000001 
0.000001 
0.000001 
0.000001 
0.000001 
0.000001 
0.000001 
0.000002 
0.000002 
0.000002 
0.000002 
0.000002 
0.000002 
0.000003 
0.000003 
0.000003 
0.000003 
0.000003 
0.000004 
0.000004 
0.000004 
0.000005 
0.000005 
0.000005 
0.000006 
0.000006 
0.000006 
0.000007 
0.000007 
0.000008 
0.000008 
0.000009 
0.000010 
0.000010 
0.000011 
0.000012 
0.000013 
0.000013 
0.000014 
0.000015 
0.000016 
0.000017 
0.000019 
0.000020 
0.000021 
0.000022 
0.000024 
0.000025 
0.000027 
0.000029 
0.000030 
0.000032 
0.000034 
0.000036 
0.000038 
0.000041 
0.000043 
0.000046 
0.000048 
0.000051 
0.000054 
0.000057 
0.000060 
0.000064 
0.000067 
0.000071 
0.000075 
0.000079 
0.000083 
0.000088 
0.000092 
0.000097 
0.000102 
0.000108 
0.000113 
0.000119 
0.000125 
0.000131 
0.000138 
0.000145 
0.000152 
0.000159 
0.000167 
0.000175 
0.000183 
0.000191 
0.000200 
0.000209 
0.000219 
0.000229 
0.000239 
0.000249 
0.000260 
0.000272 
0.000283 
0.000295 
0.000308 
0.000320 
0.000333 
0.000347 
0.000361 
0.000375 
0.000390 
0.000405 
0.000421 
0.000437 
0.000453 
0.000470 
0.000488 
0.000505 
0.000524 
0.000542 
0.000561 
0.000581 
0.000601 
0.000621 
0.000642 
0.000663 
0.000685 
0.000707 
0.000730 
0.000753 
0.000776 
0.000800 
0.000824 
0.000849 
0.000874 
0.000899 
0.000925 
0.000951 
0.000978 
0.001005 
0.001032 
0.001060 
0.001088 
0.001116 
0.001145 
0.001174 
0.001203 
0.001232 
0.001262 
0.001292 
0.001323 
0.001353 
0.001384 
0.001415 
0.001446 
0.001477 
0.001509 
0.001541 
0.001572 
0.001604 
0.001636 
0.001668 
0.001701 
0.001733 
0.001765 
0.001797 
0.001830 
0.001862 
0.001894 
0.001926 
0.001958 
0.001990 
0.002022 
0.002054 
0.002086 
0.002117 
0.002148 
0.002180 
0.002211 
0.002241 
0.002272 
0.002302 
0.002332 
0.002362 
0.002391 
0.002420 
0.002449 
0.002477 
0.002505 
0.002532 
0.002560 
0.002586 
0.002613 
0.002639 
0.002664 
0.002689 
0.002713 
0.002737 
0.002761 
0.002784 
0.002806 
0.002828 
0.002849 
0.002870 
0.002890 
0.002910 
0.002929 
0.002947 
0.002965 
0.002982 
0.002998 
0.003014 
0.003029 
0.003044 
0.003057 
0.003070 
0.003083 
0.003094 
0.003105 
0.003116 
0.003125 
0.003134 
0.003142 
0.003150 
0.003156 
0.003162 
0.003168 
0.003172 
0.003176 
0.003179 
0.003181 
0.003183 
0.003183 
0.000000 
0.000000 
0.000000 
0.000000 
0.000000 
0.000000 
0.000000 
0.000000 
0.000000 
0.000000 
0.000000 
0.000000 
0.000000 
0.000000 
0.000000 
0.000000 
0.000000 
0.000000 
0.000000 
0.000000 
0.000000 
0.000000 
0.000000 
0.000000 
0.000000 
0.000000 
0.000000 
0.000000 
0.000000 
0.000000 
0.000000 
0.000000 
0.000000 
0.000000 
0.000000 
0.000000 
0.000000 
0.000000 
0.000000 
0.000000 
0.000000 
0.000000 
0.000000 
0.000000 
0.000000 
0.000000 
0.000000 
0.000000 
0.000000 
0.000000 
0.000000 
0.000000 
0.000000 
0.000000 
0.000000 
0.000000 
0.000000 
0.000000 
0.000000 
0.000000 
0.000000 
0.000000 
0.000000 
0.000000 
0.000000 
0.000001 
0.000001 
0.000001 
0.000001 
0.000001 
0.000001 
0.000001 
0.000001 
0.000001 
0.000001 
0.000001 
0.000001 
0.000001 
0.000001 
0.000002 
0.000002 
0.000002 
0.000002 
0.000002 
0.000002 
0.000003 
0.000003 
0.000003 
0.000003 
0.000003 
0.000004 
0.000004 
0.000004 
0.000005 
0.000005 
0.000005 
0.000006 
0.000006 
0.000007 
0.000007 
0.000008 
0.000008 
0.000009 
0.000009 
0.000010 
0.000011 
0.000011 
0.000012 
0.000013 
0.000014 
0.000015 
0.000016 
0.000017 
0.000018 
0.000019 
0.000021 
0.000022 
0.000023 
0.000025 
0.000027 
0.000028 
0.000030 
0.000032 
0.000034 
0.000036 
0.000038 
0.000041 
0.000043 
0.000046 
0.000049 
0.000052 
0.000055 
0.000058 
0.000061 
0.000065 
0.000069 
0.000073 
0.000077 
0.000081 
0.000086 
0.000091 
0.000096 
0.000101 
0.000106 
0.000112 
0.000118 
0.000124 
0.000131 
0.000138 
0.000145 
0.000152 
0.000160 
0.000168 
0.000177 
0.000186 
0.000195 
0.000204 
0.000214 
0.000224 
0.000235 
0.000246 
0.000258 
0.000269 
0.000282 
0.000295 
0.000308 
0.000322 
0.000336 
0.000350 
0.000365 
0.000381 
0.000397 
0.000414 
0.000431 
0.000449 
0.000467 
0.000486 
0.000505 
0.000525 
0.000545 
0.000566 
0.000588 
0.000610 
0.000632 
0.000656 
0.000679 
0.000704 
0.000729 
0.000754 
0.000781 
0.000807 
0.000835 
0.000863 
0.000891 
0.000920 
0.000950 
0.000980 
0.001011 
0.001042 
0.001074 
0.001107 
0.001140 
0.001173 
0.001207 
0.001242 
0.001277 
0.001312 
0.001348 
0.001385 
0.001422 
0.001459 
0.001497 
0.001536 
0.001574 
0.001614 
0.001653 
0.001693 
0.001733 
0.001774 
0.001814 
0.001856 
0.001897 
0.001939 
0.001980 
0.002023 
0.002065 
0.002107 
0.002150 
0.002193 
0.002235 
0.002278 
0.002321 
0.002364 
0.002407 
0.002450 
0.002493 
0.002536 
0.002579 
0.002622 
0.002665 
0.002707 
0.002750 
0.002792 
0.002834 
0.002876 
0.002917 
0.002958 
0.002999 
0.003040 
0.003080 
0.003120 
0.003160 
0.003199 
0.003237 
0.003276 
0.003313 
0.003350 
0.003387 
0.003423 
0.003459 
0.003494 
0.003528 
0.003562 
0.003596 
0.003628 
0.003660 
0.003691 
0.003722 
0.003751 
0.003781 
0.003809 
0.003836 
0.003863 
0.003889 
0.003914 
0.003939 
0.003962 
0.003985 
0.004007 
0.004028 
0.004048 
0.004067 
0.004085 
0.004103 
0.004119 
0.004135 
0.004149 
0.004163 
0.004176 
0.004188 
0.004198 
0.004208 
0.004217 
0.004225 
0.004232 
0.004238 
0.004243 
0.004247 
0.004250 
0.004252 
0.004253 
0.000000 
0.000000 
0.000000 
0.000000 
0.000000 
0.000000 
0.000000 
0.000000 
0.000000 
0.000000 
0.000000 
0.000000 
0.000000 
0.000000 
0.000000 
0.000000 
0.000000 
0.000000 
0.000000 
0.000000 
0.000000 
0.000000 
0.000000 
0.000000 
0.000000 
0.000000 
0.000000 
0.000000 
0.000000 
0.000000 
0.000000 
0.000000 
0.000000 
0.000000 
0.000000 
0.000000 
0.000000 
0.000000 
0.000000 
0.000000 
0.000000 
0.000000 
0.000000 
0.000000 
0.000000 
0.000000 
0.000000 
0.000000 
0.000000 
0.000000 
0.000000 
0.000000 
0.000000 
0.000000 
0.000000 
0.000000 
0.000000 
0.000000 
0.000000 
0.000000 
0.000000 
0.000000 
0.000001 
0.000001 
0.000001 
0.000001 
0.000001 
0.000001 
0.000001 
0.000001 
0.000001 
0.000001 
0.000001 
0.000001 
0.000001 
0.000001 
0.000002 
0.000002 
0.000002 
0.000002 
0.000002 
0.000002 
0.000003 
0.000003 
0.000003 
0.000003 
0.000003 
0.000004 
0.000004 
0.000004 
0.000005 
0.000005 
0.000005 
0.000006 
0.000006 
0.000007 
0.000007 
0.000008 
0.000008 
0.000009 
0.000010 
0.000010 
0.000011 
0.000012 
0.000013 
0.000013 
0.000014 
0.000015 
0.000017 
0.000018 
0.000019 
0.000020 
0.000022 
0.000023 
0.000025 
0.000026 
0.000028 
0.000030 
0.000032 
0.000034 
0.000036 
0.000038 
0.000041 
0.000043 
0.000046 
0.000049 
0.000052 
0.000055 
0.000058 
0.000062 
0.000066 
0.000069 
0.000074 
0.000078 
0.000082 
0.000087 
0.000092 
0.000097 
0.000103 
0.000109 
0.000115 
0.000121 
0.000128 
0.000135 
0.000142 
0.000150 
0.000158 
0.000166 
0.000175 
0.000184 
0.000193 
0.000203 
0.000213 
0.000224 
0.000235 
0.000247 
0.000259 
0.000271 
0.000284 
0.000298 
0.000312 
0.000326 
0.000341 
0.000357 
0.000373 
0.000389 
0.000407 
0.000425 
0.000443 
0.000462 
0.000482 
0.000502 
0.000523 
0.000545 
0.000567 
0.000590 
0.000614 
0.000638 
0.000663 
0.000689 
0.000715 
0.000742 
0.000770 
0.000799 
0.000828 
0.000858 
0.000889 
0.000920 
0.000953 
0.000986 
0.001019 
0.001054 
0.001089 
0.001125 
0.001161 
0.001199 
0.001237 
0.001275 
0.001315 
0.001355 
0.001396 
0.001437 
0.001479 
0.001522 
0.001566 
0.001610 
0.001655 
0.001700 
0.001746 
0.001792 
0.001839 
0.001887 
0.001935 
0.001983 
0.002033 
0.002082 
0.002132 
0.002183 
0.002233 
0.002285 
0.002336 
0.002388 
0.002440 
0.002493 
0.002545 
0.002598 
0.002651 
0.002705 
0.002758 
0.002812 
0.002866 
0.002919 
0.002973 
0.003027 
0.003081 
0.003135 
0.003189 
0.003242 
0.003296 
0.003349 
0.003402 
0.003455 
0.003508 
0.003561 
0.003613 
0.003665 
0.003716 
0.003767 
0.003818 
0.003868 
0.003918 
0.003967 
0.004016 
0.004064 
0.004112 
0.004159 
0.004205 
0.004251 
0.004296 
0.004341 
0.004384 
0.004427 
0.004470 
0.004511 
0.004552 
0.004591 
0.004630 
0.004668 
0.004705 
0.004742 
0.004777 
0.004811 
0.004845 
0.004877 
0.004908 
0.004939 
0.004968 
0.004996 
0.005024 
0.005050 
0.005075 
0.005099 
0.005121 
0.005143 
0.005164 
0.005183 
0.005201 
0.005218 
0.005234 
0.005249 
0.005262 
0.005274 
0.005285 
0.005295 
0.005304 
0.005311 
0.005317 
0.005322 
0.005326 
0.005329 
0.005330 
0.000000 
0.000000 
0.000000 
0.000000 
0.000000 
0.000000 
0.000000 
0.000000 
0.000000 
0.000000 
0.000000 
0.000000 
0.000000 
0.000000 
0.000000 
0.000000 
0.000000 
0.000000 
0.000000 
0.000000 
0.000000 
0.000000 
0.000000 
0.000000 
0.000000 
0.000000 
0.000000 
0.000000 
0.000000 
0.000000 
0.000000 
0.000000 
0.000000 
0.000000 
0.000000 
0.000000 
0.000000 
0.000000 
0.000000 
0.000000 
0.000000 
0.000000 
0.000000 
0.000000 
0.000000 
0.000000 
0.000000 
0.000000 
0.000000 
0.000000 
0.000000 
0.000000 
0.000000 
0.000000 
0.000000 
0.000000 
0.000000 
0.000000 
0.000000 
0.000000 
0.000001 
0.000001 
0.000001 
0.000001 
0.000001 
0.000001 
0.000001 
0.000001 
0.000001 
0.000001 
0.000001 
0.000001 
0.000001 
0.000002 
0.000002 
0.000002 
0.000002 
0.000002 
0.000002 
0.000002 
0.000003 
0.000003 
0.000003 
0.000003 
0.000004 
0.000004 
0.000004 
0.000005 
0.000005 
0.000005 
0.000006 
0.000006 
0.000007 
0.000007 
0.000008 
0.000008 
0.000009 
0.000009 
0.000010 
0.000011 
0.000012 
0.000013 
0.000013 
0.000014 
0.000015 
0.000016 
0.000018 
0.000019 
0.000020 
0.000022 
0.000023 
0.000025 
0.000026 
0.000028 
0.000030 
0.000032 
0.000034 
0.000036 
0.000039 
0.000041 
0.000044 
0.000047 
0.000050 
0.000053 
0.000056 
0.000060 
0.000063 
0.000067 
0.000071 
0.000075 
0.000080 
0.000085 
0.000090 
0.000095 
0.000101 
0.000106 
0.000113 
0.000119 
0.000126 
0.000133 
0.000140 
0.000148 
0.000156 
0.000164 
0.000173 
0.000183 
0.000192 
0.000202 
0.000213 
0.000224 
0.000235 
0.000247 
0.000260 
0.000273 
0.000286 
0.000301 
0.000315 
0.000330 
0.000346 
0.000363 
0.000380 
0.000397 
0.000415 
0.000434 
0.000454 
0.000474 
0.000495 
0.000517 
0.000539 
0.000563 
0.000587 
0.000611 
0.000637 
0.000663 
0.000690 
0.000718 
0.000747 
0.000776 
0.000807 
0.000838 
0.000870 
0.000903 
0.000937 
0.000971 
0.001007 
0.001043 
0.001080 
0.001119 
0.001158 
0.001197 
0.001238 
0.001280 
0.001322 
0.001366 
0.001410 
0.001455 
0.001501 
0.001548 
0.001596 
0.001644 
0.001694 
0.001744 
0.001795 
0.001846 
0.001899 
0.001952 
0.002006 
0.002061 
0.002116 
0.002172 
0.002229 
0.002286 
0.002344 
0.002403 
0.002462 
0.002522 
0.002582 
0.002643 
0.002704 
0.002766 
0.002828 
0.002890 
0.002953 
0.003016 
0.003080 
0.003143 
0.003207 
0.003271 
0.003336 
0.003400 
0.003465 
0.003530 
0.003594 
0.003659 
0.003724 
0.003788 
0.003853 
0.003917 
0.003982 
0.004046 
0.004109 
0.004173 
0.004236 
0.004299 
0.004362 
0.004424 
0.004486 
0.004547 
0.004608 
0.004668 
0.004728 
0.004787 
0.004845 
0.004903 
0.004960 
0.005017 
0.005072 
0.005127 
0.005181 
0.005234 
0.005287 
0.005338 
0.005388 
0.005438 
0.005487 
0.005534 
0.005581 
0.005626 
0.005671 
0.005714 
0.005756 
0.005797 
0.005837 
0.005876 
0.005913 
0.005950 
0.005985 
0.006018 
0.006051 
0.006082 
0.006112 
0.006140 
0.006168 
0.006194 
0.006218 
0.006241 
0.006263 
0.006283 
0.006302 
0.006320 
0.006336 
0.006350 
0.006364 
0.006375 
0.006386 
0.006394 
0.006402 
0.006408 
0.006412 
0.006415 
0.006417 
0.000000 
0.000000 
0.000000 
0.000000 
0.000000 
0.000000 
0.000000 
0.000000 
0.000000 
0.000000 
0.000000 
0.000000 
0.000000 
0.000000 
0.000000 
0.000000 
0.000000 
0.000000 
0.000000 
0.000000 
0.000000 
0.000000 
0.000000 
0.000000 
0.000000 
0.000000 
0.000000 
0.000000 
0.000000 
0.000000 
0.000000 
0.000000 
0.000000 
0.000000 
0.000000 
0.000000 
0.000000 
0.000000 
0.000000 
0.000000 
0.000000 
0.000000 
0.000000 
0.000000 
0.000000 
0.000000 
0.000000 
0.000000 
0.000000 
0.000000 
0.000000 
0.000000 
0.000000 
0.000000 
0.000000 
0.000000 
0.000000 
0.000000 
0.000001 
0.000001 
0.000001 
0.000001 
0.000001 
0.000001 
0.000001 
0.000001 
0.000001 
0.000001 
0.000001 
0.000001 
0.000001 
0.000002 
0.000002 
0.000002 
0.000002 
0.000002 
0.000002 
0.000002 
0.000003 
0.000003 
0.000003 
0.000003 
0.000004 
0.000004 
0.000004 
0.000005 
0.000005 
0.000005 
0.000006 
0.000006 
0.000007 
0.000007 
0.000008 
0.000008 
0.000009 
0.000010 
0.000010 
0.000011 
0.000012 
0.000013 
0.000014 
0.000015 
0.000016 
0.000017 
0.000018 
0.000020 
0.000021 
0.000023 
0.000024 
0.000026 
0.000027 
0.000029 
0.000031 
0.000033 
0.000036 
0.000038 
0.000041 
0.000043 
0.000046 
0.000049 
0.000052 
0.000056 
0.000059 
0.000063 
0.000067 
0.000071 
0.000075 
0.000080 
0.000085 
0.000090 
0.000095 
0.000101 
0.000107 
0.000113 
0.000120 
0.000127 
0.000134 
0.000142 
0.000150 
0.000158 
0.000167 
0.000176 
0.000186 
0.000196 
0.000206 
0.000217 
0.000229 
0.000241 
0.000253 
0.000266 
0.000280 
0.000294 
0.000309 
0.000324 
0.000340 
0.000357 
0.000374 
0.000392 
0.000411 
0.000431 
0.000451 
0.000472 
0.000493 
0.000516 
0.000539 
0.000563 
0.000588 
0.000614 
0.000640 
0.000668 
0.000696 
0.000725 
0.000755 
0.000786 
0.000818 
0.000851 
0.000885 
0.000920 
0.000956 
0.000993 
0.001031 
0.001070 
0.001110 
0.001150 
0.001192 
0.001235 
0.001279 
0.001324 
0.001370 
0.001417 
0.001465 
0.001514 
0.001565 
0.001616 
0.001668 
0.001721 
0.001775 
0.001830 
0.001886 
0.001944 
0.002002 
0.002061 
0.002120 
0.002181 
0.002243 
0.002305 
0.002369 
0.002433 
0.002498 
0.002564 
0.002631 
0.002698 
0.002766 
0.002835 
0.002904 
0.002974 
0.003045 
0.003116 
0.003188 
0.003260 
0.003333 
0.003406 
0.003480 
0.003553 
0.003628 
0.003702 
0.003777 
0.003852 
0.003928 
0.004003 
0.004078 
0.004154 
0.004230 
0.004305 
0.004381 
0.004456 
0.004532 
0.004607 
0.004682 
0.004757 
0.004831 
0.004905 
0.004979 
0.005053 
0.005126 
0.005198 
0.005270 
0.005342 
0.005412 
0.005483 
0.005552 
0.005621 
0.005689 
0.005756 
0.005823 
0.005888 
0.005953 
0.006017 
0.006080 
0.006142 
0.006203 
0.006262 
0.006321 
0.006379 
0.006435 
0.006491 
0.006545 
0.006598 
0.006649 
0.006699 
0.006748 
0.006796 
0.006843 
0.006887 
0.006931 
0.006973 
0.007014 
0.007053 
0.007091 
0.007127 
0.007162 
0.007195 
0.007226 
0.007256 
0.007285 
0.007312 
0.007337 
0.007361 
0.007383 
0.007403 
0.007422 
0.007439 
0.007454 
0.007467 
0.007479 
0.007490 
0.007498 
0.007505 
0.007510 
0.007514 
0.007515 
0.000000 
0.000000 
0.000000 
0.000000 
0.000000 
0.000000 
0.000000 
0.000000 
0.000000 
0.000000 
0.000000 
0.000000 
0.000000 
0.000000 
0.000000 
0.000000 
0.000000 
0.000000 
0.000000 
0.000000 
0.000000 
0.000000 
0.000000 
0.000000 
0.000000 
0.000000 
0.000000 
0.000000 
0.000000 
0.000000 
0.000000 
0.000000 
0.000000 
0.000000 
0.000000 
0.000000 
0.000000 
0.000000 
0.000000 
0.000000 
0.000000 
0.000000 
0.000000 
0.000000 
0.000000 
0.000000 
0.000000 
0.000000 
0.000000 
0.000000 
0.000000 
0.000000 
0.000000 
0.000000 
0.000000 
0.000000 
0.000001 
0.000001 
0.000001 
0.000001 
0.000001 
0.000001 
0.000001 
0.000001 
0.000001 
0.000001 
0.000001 
0.000001 
0.000001 
0.000002 
0.000002 
0.000002 
0.000002 
0.000002 
0.000002 
0.000002 
0.000003 
0.000003 
0.000003 
0.000003 
0.000004 
0.000004 
0.000004 
0.000005 
0.000005 
0.000005 
0.000006 
0.000006 
0.000007 
0.000007 
0.000008 
0.000009 
0.000009 
0.000010 
0.000011 
0.000011 
0.000012 
0.000013 
0.000014 
0.000015 
0.000016 
0.000017 
0.000019 
0.000020 
0.000021 
0.000023 
0.000025 
0.000026 
0.000028 
0.000030 
0.000032 
0.000034 
0.000037 
0.000039 
0.000042 
0.000045 
0.000048 
0.000051 
0.000054 
0.000057 
0.000061 
0.000065 
0.000069 
0.000073 
0.000078 
0.000083 
0.000088 
0.000093 
0.000099 
0.000105 
0.000111 
0.000118 
0.000125 
0.000132 
0.000140 
0.000148 
0.000157 
0.000165 
0.000175 
0.000185 
0.000195 
0.000205 
0.000217 
0.000228 
0.000241 
0.000254 
0.000267 
0.000281 
0.000296 
0.000311 
0.000327 
0.000343 
0.000361 
0.000378 
0.000397 
0.000417 
0.000437 
0.000458 
0.000480 
0.000502 
0.000526 
0.000550 
0.000575 
0.000601 
0.000628 
0.000656 
0.000685 
0.000715 
0.000746 
0.000778 
0.000811 
0.000845 
0.000880 
0.000916 
0.000953 
0.000991 
0.001030 
0.001071 
0.001112 
0.001155 
0.001199 
0.001244 
0.001290 
0.001338 
0.001386 
0.001436 
0.001487 
0.001539 
0.001592 
0.001647 
0.001702 
0.001759 
0.001817 
0.001876 
0.001936 
0.001998 
0.002060 
0.002124 
0.002189 
0.002254 
0.002321 
0.002389 
0.002458 
0.002529 
0.002600 
0.002672 
0.002745 
0.002819 
0.002894 
0.002970 
0.003046 
0.003124 
0.003202 
0.003281 
0.003361 
0.003441 
0.003523 
0.003604 
0.003687 
0.003770 
0.003853 
0.003937 
0.004022 
0.004107 
0.004192 
0.004277 
0.004363 
0.004449 
0.004536 
0.004622 
0.004709 
0.004795 
0.004882 
0.004968 
0.005055 
0.005141 
0.005228 
0.005314 
0.005399 
0.005485 
0.005570 
0.005655 
0.005739 
0.005823 
0.005906 
0.005989 
0.006071 
0.006153 
0.006234 
0.006314 
0.006393 
0.006472 
0.006549 
0.006626 
0.006702 
0.006777 
0.006851 
0.006923 
0.006995 
0.007066 
0.007135 
0.007203 
0.007270 
0.007336 
0.007400 
0.007463 
0.007524 
0.007585 
0.007643 
0.007701 
0.007756 
0.007811 
0.007863 
0.007914 
0.007964 
0.008012 
0.008058 
0.008103 
0.008146 
0.008187 
0.008226 
0.008264 
0.008300 
0.008334 
0.008366 
0.008397 
0.008425 
0.008452 
0.008477 
0.008500 
0.008521 
0.008541 
0.008558 
0.008574 
0.008587 
0.008599 
0.008609 
0.008616 
0.008622 
0.008626 
0.008628 
0.000000 
0.000000 
0.000000 
0.000000 
0.000000 
0.000000 
0.000000 
0.000000 
0.000000 
0.000000 
0.000000 
0.000000 
0.000000 
0.000000 
0.000000 
0.000000 
0.000000 
0.000000 
0.000000 
0.000000 
0.000000 
0.000000 
0.000000 
0.000000 
0.000000 
0.000000 