# vtk DataFile Version 3.0
results.vtk
ASCII
DATASET RECTILINEAR_GRID
DIMENSIONS 301 301 1
X_COORDINATES 301 double
0.000000 0.003333 0.006667 0.010000 0.013333 0.016667 0.020000 0.023333 0.026667 0.030000 0.033333 0.036667 0.040000 0.043333 0.046667 0.050000 0.053333 0.056667 0.060000 0.063333 0.066667 0.070000 0.073333 0.076667 0.080000 0.083333 0.086667 0.090000 0.093333 0.096667 0.100000 0.103333 0.106667 0.110000 0.113333 0.116667 0.120000 0.123333 0.126667 0.130000 0.133333 0.136667 0.140000 0.143333 0.146667 0.150000 0.153333 0.156667 0.160000 0.163333 0.166667 0.170000 0.173333 0.176667 0.180000 0.183333 0.186667 0.190000 0.193333 0.196667 0.200000 0.203333 0.206667 0.210000 0.213333 0.216667 0.220000 0.223333 0.226667 0.230000 0.233333 0.236667 0.240000 0.243333 0.246667 0.250000 0.253333 0.256667 0.260000 0.263333 0.266667 0.270000 0.273333 0.276667 0.280000 0.283333 0.286667 0.290000 0.293333 0.296667 0.300000 0.303333 0.306667 0.310000 0.313333 0.316667 0.320000 0.323333 0.326667 0.330000 0.333333 0.336667 0.340000 0.343333 0.346667 0.350000 0.353333 0.356667 0.360000 0.363333 0.366667 0.370000 0.373333 0.376667 0.380000 0.383333 0.386667 0.390000 0.393333 0.396667 0.400000 0.403333 0.406667 0.410000 0.413333 0.416667 0.420000 0.423333 0.426667 0.430000 0.433333 0.436667 0.440000 0.443333 0.446667 0.450000 0.453333 0.456667 0.460000 0.463333 0.466667 0.470000 0.473333 0.476667 0.480000 0.483333 0.486667 0.490000 0.493333 0.496667 0.500000 0.503333 0.506667 0.510000 0.513333 0.516667 0.520000 0.523333 0.526667 0.530000 0.533333 0.536667 0.540000 0.543333 0.546667 0.550000 0.553333 0.556667 0.560000 0.563333 0.566667 0.570000 0.573333 0.576667 0.580000 0.583333 0.586667 0.590000 0.593333 0.596667 0.600000 0.603333 0.606667 0.610000 0.613333 0.616667 0.620000 0.623333 0.626667 0.630000 0.633333 0.636667 0.640000 0.643333 0.646667 0.650000 0.653333 0.656667 0.660000 0.663333 0.666667 0.670000 0.673333 0.676667 0.680000 0.683333 0.686667 0.690000 0.693333 0.696667 0.700000 0.703333 0.706667 0.710000 0.713333 0.716667 0.720000 0.723333 0.726667 0.730000 0.733333 0.736667 0.740000 0.743333 0.746667 0.750000 0.753333 0.756667 0.760000 0.763333 0.766667 0.770000 0.773333 0.776667 0.780000 0.783333 0.786667 0.790000 0.793333 0.796667 0.800000 0.803333 0.806667 0.810000 0.813333 0.816667 0.820000 0.823333 0.826667 0.830000 0.833333 0.836667 0.840000 0.843333 0.846667 0.850000 0.853333 0.856667 0.860000 0.863333 0.866667 0.870000 0.873333 0.876667 0.880000 0.883333 0.886667 0.890000 0.893333 0.896667 0.900000 0.903333 0.906667 0.910000 0.913333 0.916667 0.920000 0.923333 0.926667 0.930000 0.933333 0.936667 0.940000 0.943333 0.946667 0.950000 0.953333 0.956667 0.960000 0.963333 0.966667 0.970000 0.973333 0.976667 0.980000 0.983333 0.986667 0.990000 0.993333 0.996667 1.000000 
Y_COORDINATES 301 double
0.000000 0.003333 0.006667 0.010000 0.013333 0.016667 0.020000 0.023333 0.026667 0.030000 0.033333 0.036667 0.040000 0.043333 0.046667 0.050000 0.053333 0.056667 0.060000 0.063333 0.066667 0.070000 0.073333 0.076667 0.080000 0.083333 0.086667 0.090000 0.093333 0.096667 0.100000 0.103333 0.106667 0.110000 0.113333 0.116667 0.120000 0.123333 0.126667 0.130000 0.133333 0.136667 0.140000 0.143333 0.146667 0.150000 0.153333 0.156667 0.160000 0.163333 0.166667 0.170000 0.173333 0.176667 0.180000 0.183333 0.186667 0.190000 0.193333 0.196667 0.200000 0.203333 0.206667 0.210000 0.213333 0.216667 0.220000 0.223333 0.226667 0.230000 0.233333 0.236667 0.240000 0.243333 0.246667 0.250000 0.253333 0.256667 0.260000 0.263333 0.266667 0.270000 0.273333 0.276667 0.280000 0.283333 0.286667 0.290000 0.293333 0.296667 0.300000 0.303333 0.306667 0.310000 0.313333 0.316667 0.320000 0.323333 0.326667 0.330000 0.333333 0.336667 0.340000 0.343333 0.346667 0.350000 0.353333 0.356667 0.360000 0.363333 0.366667 0.370000 0.373333 0.376667 0.380000 0.383333 0.386667 0.390000 0.393333 0.396667 0.400000 0.403333 0.406667 0.410000 0.413333 0.416667 0.420000 0.423333 0.426667 0.430000 0.433333 0.436667 0.440000 0.443333 0.446667 0.450000 0.453333 0.456667 0.460000 0.463333 0.466667 0.470000 0.473333 0.476667 0.480000 0.483333 0.486667 0.490000 0.493333 0.496667 0.500000 0.503333 0.506667 0.510000 0.513333 0.516667 0.520000 0.523333 0.526667 0.530000 0.533333 0.536667 0.540000 0.543333 0.546667 0.550000 0.553333 0.556667 0.560000 0.563333 0.566667 0.570000 0.573333 0.576667 0.580000 0.583333 0.586667 0.590000 0.593333 0.596667 0.600000 0.603333 0.606667 0.610000 0.613333 0.616667 0.620000 0.623333 0.626667 0.630000 0.633333 0.636667 0.640000 0.643333 0.646667 0.650000 0.653333 0.656667 0.660000 0.663333 0.666667 0.670000 0.673333 0.676667 0.680000 0.683333 0.686667 0.690000 0.693333 0.696667 0.700000 0.703333 0.706667 0.710000 0.713333 0.716667 0.720000 0.723333 0.726667 0.730000 0.733333 0.736667 0.740000 0.743333 0.746667 0.750000 0.753333 0.756667 0.760000 0.763333 0.766667 0.770000 0.773333 0.776667 0.780000 0.783333 0.786667 0.790000 0.793333 0.796667 0.800000 0.803333 0.806667 0.810000 0.813333 0.816667 0.820000 0.823333 0.826667 0.830000 0.833333 0.836667 0.840000 0.843333 0.846667 0.850000 0.853333 0.856667 0.860000 0.863333 0.866667 0.870000 0.873333 0.876667 0.880000 0.883333 0.886667 0.890000 0.893333 0.896667 0.900000 0.903333 0.906667 0.910000 0.913333 0.916667 0.920000 0.923333 0.926667 0.930000 0.933333 0.936667 0.940000 0.943333 0.946667 0.950000 0.953333 0.956667 0.960000 0.963333 0.966667 0.970000 0.973333 0.976667 0.980000 0.983333 0.986667 0.990000 0.993333 0.996667 1.000000 
Z_COORDINATES 1 double
0
POINT_DATA 90601 
FIELD FieldData 1 
Concentração 1 90601 double 
0.000000 
0.000000 
0.000000 
0.000000 
0.000000 
0.000000 
0.000000 
0.000000 
0.000000 
0.000000 
0.000000 
0.000000 
0.000000 
0.000000 
0.000000 
0.000000 
0.000000 
0.000000 
0.000000 
0.000000 
0.000000 
0.000000 
0.000000 
0.000000 
0.000000 
0.000000 
0.000000 
0.000000 
0.000000 
0.000000 
0.000000 
0.000000 
0.000000 
0.000000 
0.000000 
0.000000 
0.000000 
0.000000 
0.000000 
0.000000 
0.000000 
0.000000 
0.000000 
0.000000 
0.000000 
0.000000 
0.000000 
0.000000 
0.000000 
0.000000 
0.000000 
0.000000 
0.000000 
0.000000 
0.000000 
0.000000 
0.000000 
0.000000 
0.000000 
0.000000 
0.000000 
0.000000 
0.000000 
0.000000 
0.000000 
0.000000 
0.000000 
0.000000 
0.000000 
0.000000 
0.000000 
0.000000 
0.000000 
0.000000 
0.000000 
0.000000 
0.000000 
0.000000 
0.000000 
0.000000 
0.000000 
0.000000 
0.000000 
0.000000 
0.000000 
0.000000 
0.000000 
0.000000 
0.000000 
0.000000 
0.000000 
0.000000 
0.000000 
0.000000 
0.000000 
0.000000 
0.000000 
0.000000 
0.000000 
0.000000 
0.000000 
0.000000 
0.000000 
0.000000 
0.000000 
0.000000 
0.000000 
0.000000 
0.000000 
0.000000 
0.000000 
0.000000 
0.000000 
0.000000 
0.000000 
0.000000 
0.000000 
0.000000 
0.000000 
0.000000 
0.000000 
0.000000 
0.000000 
0.000000 
0.000000 
0.000000 
0.000000 
0.000000 
0.000000 
0.000000 
0.000000 
0.000000 
0.000000 
0.000001 
0.000001 
0.000001 
0.000001 
0.000001 
0.000001 
0.000001 
0.000001 
0.000001 
0.000001 
0.000001 
0.000001 
0.000001 
0.000001 
0.000001 
0.000001 
0.000001 
0.000001 
0.000001 
0.000002 
0.000002 
0.000002 
0.000002 
0.000002 
0.000002 
0.000002 
0.000002 
0.000002 
0.000003 
0.000003 
0.000003 
0.000003 
0.000003 
0.000003 
0.000004 
0.000004 
0.000004 
0.000004 
0.000004 
0.000005 
0.000005 
0.000005 
0.000005 
0.000005 
0.000006 
0.000006 
0.000006 
0.000007 
0.000007 
0.000007 
0.000007 
0.000008 
0.000008 
0.000009 
0.000009 
0.000009 
0.000010 
0.000010 
0.000011 
0.000011 
0.000011 
0.000012 
0.000012 
0.000013 
0.000013 
0.000014 
0.000014 
0.000015 
0.000015 
0.000016 
0.000017 
0.000017 
0.000018 
0.000018 
0.000019 
0.000020 
0.000020 
0.000021 
0.000022 
0.000023 
0.000023 
0.000024 
0.000025 
0.000026 
0.000026 
0.000027 
0.000028 
0.000029 
0.000030 
0.000031 
0.000032 
0.000032 
0.000033 
0.000034 
0.000035 
0.000036 
0.000037 
0.000038 
0.000039 
0.000040 
0.000041 
0.000042 
0.000043 
0.000044 
0.000045 
0.000046 
0.000047 
0.000048 
0.000049 
0.000050 
0.000051 
0.000052 
0.000053 
0.000054 
0.000055 
0.000057 
0.000058 
0.000059 
0.000060 
0.000061 
0.000062 
0.000063 
0.000064 
0.000065 
0.000066 
0.000067 
0.000068 
0.000069 
0.000070 
0.000071 
0.000072 
0.000073 
0.000074 
0.000075 
0.000075 
0.000076 
0.000077 
0.000078 
0.000079 
0.000080 
0.000080 
0.000081 
0.000082 
0.000083 
0.000083 
0.000084 
0.000085 
0.000085 
0.000086 
0.000086 
0.000087 
0.000088 
0.000088 
0.000088 
0.000089 
0.000089 
0.000090 
0.000090 
0.000090 
0.000091 
0.000091 
0.000091 
0.000091 
0.000091 
0.000092 
0.000092 
0.000092 
0.000092 
0.000000 
0.000000 
0.000000 
0.000000 
0.000000 
0.000000 
0.000000 
0.000000 
0.000000 
0.000000 
0.000000 
0.000000 
0.000000 
0.000000 
0.000000 
0.000000 
0.000000 
0.000000 
0.000000 
0.000000 
0.000000 
0.000000 
0.000000 
0.000000 
0.000000 
0.000000 
0.000000 
0.000000 
0.000000 
0.000000 
0.000000 
0.000000 
0.000000 
0.000000 
0.000000 
0.000000 
0.000000 
0.000000 
0.000000 
0.000000 
0.000000 
0.000000 
0.000000 
0.000000 
0.000000 
0.000000 
0.000000 
0.000000 
0.000000 
0.000000 
0.000000 
0.000000 
0.000000 
0.000000 
0.000000 
0.000000 
0.000000 
0.000000 
0.000000 
0.000000 
0.000000 
0.000000 
0.000000 
0.000000 
0.000000 
0.000000 
0.000000 
0.000000 
0.000000 
0.000000 
0.000000 
0.000000 
0.000000 
0.000000 
0.000000 
0.000000 
0.000000 
0.000000 
0.000000 
0.000000 
0.000000 
0.000000 
0.000000 
0.000000 
0.000000 
0.000000 
0.000000 
0.000000 
0.000000 
0.000000 
0.000000 
0.000000 
0.000000 
0.000000 
0.000000 
0.000000 
0.000000 
0.000000 
0.000000 
0.000000 
0.000000 
0.000000 
0.000000 
0.000000 
0.000000 
0.000000 
0.000000 
0.000000 
0.000000 
0.000000 
0.000000 
0.000000 
0.000000 
0.000000 
0.000000 
0.000000 
0.000000 
0.000000 
0.000000 
0.000000 
0.000000 
0.000000 
0.000000 
0.000001 
0.000001 
0.000001 
0.000001 
0.000001 
0.000001 
0.000001 
0.000001 
0.000001 
0.000001 
0.000001 
0.000001 
0.000001 
0.000001 
0.000001 
0.000001 
0.000001 
0.000002 
0.000002 
0.000002 
0.000002 
0.000002 
0.000002 
0.000002 
0.000002 
0.000003 
0.000003 
0.000003 
0.000003 
0.000003 
0.000003 
0.000004 
0.000004 
0.000004 
0.000004 
0.000004 
0.000005 
0.000005 
0.000005 
0.000005 
0.000006 
0.000006 
0.000006 
0.000007 
0.000007 
0.000007 
0.000008 
0.000008 
0.000009 
0.000009 
0.000010 
0.000010 
0.000010 
0.000011 
0.000011 
0.000012 
0.000013 
0.000013 
0.000014 
0.000014 
0.000015 
0.000016 
0.000016 
0.000017 
0.000018 
0.000019 
0.000019 
0.000020 
0.000021 
0.000022 
0.000023 
0.000024 
0.000025 
0.000026 
0.000027 
0.000028 
0.000029 
0.000030 
0.000031 
0.000032 
0.000033 
0.000035 
0.000036 
0.000037 
0.000038 
0.000040 
0.000041 
0.000043 
0.000044 
0.000045 
0.000047 
0.000048 
0.000050 
0.000052 
0.000053 
0.000055 
0.000056 
0.000058 
0.000060 
0.000062 
0.000063 
0.000065 
0.000067 
0.000069 
0.000071 
0.000073 
0.000075 
0.000076 
0.000078 
0.000080 
0.000082 
0.000084 
0.000086 
0.000088 
0.000090 
0.000093 
0.000095 
0.000097 
0.000099 
0.000101 
0.000103 
0.000105 
0.000107 
0.000109 
0.000111 
0.000114 
0.000116 
0.000118 
0.000120 
0.000122 
0.000124 
0.000126 
0.000128 
0.000130 
0.000132 
0.000134 
0.000136 
0.000138 
0.000140 
0.000142 
0.000144 
0.000146 
0.000148 
0.000150 
0.000152 
0.000153 
0.000155 
0.000157 
0.000158 
0.000160 
0.000162 
0.000163 
0.000165 
0.000166 
0.000168 
0.000169 
0.000170 
0.000171 
0.000173 
0.000174 
0.000175 
0.000176 
0.000177 
0.000178 
0.000179 
0.000180 
0.000180 
0.000181 
0.000182 
0.000182 
0.000183 
0.000183 
0.000184 
0.000184 
0.000184 
0.000184 
0.000184 
0.000184 
0.000000 
0.000000 
0.000000 
0.000000 
0.000000 
0.000000 
0.000000 
0.000000 
0.000000 
0.000000 
0.000000 
0.000000 
0.000000 
0.000000 
0.000000 
0.000000 
0.000000 
0.000000 
0.000000 
0.000000 
0.000000 
0.000000 
0.000000 
0.000000 
0.000000 
0.000000 
0.000000 
0.000000 
0.000000 
0.000000 
0.000000 
0.000000 
0.000000 
0.000000 
0.000000 
0.000000 
0.000000 
0.000000 
0.000000 
0.000000 
0.000000 
0.000000 
0.000000 
0.000000 
0.000000 
0.000000 
0.000000 
0.000000 
0.000000 
0.000000 
0.000000 
0.000000 
0.000000 
0.000000 
0.000000 
0.000000 
0.000000 
0.000000 
0.000000 
0.000000 
0.000000 
0.000000 
0.000000 
0.000000 
0.000000 
0.000000 
0.000000 
0.000000 
0.000000 
0.000000 
0.000000 
0.000000 
0.000000 
0.000000 
0.000000 
0.000000 
0.000000 
0.000000 
0.000000 
0.000000 
0.000000 
0.000000 
0.000000 
0.000000 
0.000000 
0.000000 
0.000000 
0.000000 
0.000000 
0.000000 
0.000000 
0.000000 
0.000000 
0.000000 
0.000000 
0.000000 
0.000000 
0.000000 
0.000000 
0.000000 
0.000000 
0.000000 
0.000000 
0.000000 
0.000000 
0.000000 
0.000000 
0.000000 
0.000000 
0.000000 
0.000000 
0.000000 
0.000000 
0.000000 
0.000000 
0.000000 
0.000000 
0.000001 
0.000001 
0.000001 
0.000001 
0.000001 
0.000001 
0.000001 
0.000001 
0.000001 
0.000001 
0.000001 
0.000001 
0.000001 
0.000001 
0.000001 
0.000001 
0.000002 
0.000002 
0.000002 
0.000002 
0.000002 
0.000002 
0.000002 
0.000002 
0.000003 
0.000003 
0.000003 
0.000003 
0.000003 
0.000003 
0.000004 
0.000004 
0.000004 
0.000004 
0.000005 
0.000005 
0.000005 
0.000005 
0.000006 
0.000006 
0.000006 
0.000007 
0.000007 
0.000007 
0.000008 
0.000008 
0.000009 
0.000009 
0.000010 
0.000010 
0.000011 
0.000011 
0.000012 
0.000012 
0.000013 
0.000014 
0.000014 
0.000015 
0.000016 
0.000017 
0.000017 
0.000018 
0.000019 
0.000020 
0.000021 
0.000022 
0.000023 
0.000024 
0.000025 
0.000026 
0.000027 
0.000028 
0.000029 
0.000031 
0.000032 
0.000033 
0.000035 
0.000036 
0.000038 
0.000039 
0.000041 
0.000042 
0.000044 
0.000045 
0.000047 
0.000049 
0.000051 
0.000052 
0.000054 
0.000056 
0.000058 
0.000060 
0.000062 
0.000064 
0.000067 
0.000069 
0.000071 
0.000073 
0.000076 
0.000078 
0.000081 
0.000083 
0.000086 
0.000088 
0.000091 
0.000093 
0.000096 
0.000099 
0.000101 
0.000104 
0.000107 
0.000110 
0.000113 
0.000116 
0.000119 
0.000122 
0.000125 
0.000128 
0.000131 
0.000134 
0.000137 
0.000140 
0.000143 
0.000146 
0.000150 
0.000153 
0.000156 
0.000159 
0.000162 
0.000165 
0.000169 
0.000172 
0.000175 
0.000178 
0.000181 
0.000185 
0.000188 
0.000191 
0.000194 
0.000197 
0.000200 
0.000203 
0.000206 
0.000209 
0.000212 
0.000215 
0.000218 
0.000221 
0.000224 
0.000227 
0.000229 
0.000232 
0.000235 
0.000237 
0.000240 
0.000242 
0.000245 
0.000247 
0.000249 
0.000251 
0.000253 
0.000255 
0.000257 
0.000259 
0.000261 
0.000263 
0.000265 
0.000266 
0.000268 
0.000269 
0.000270 
0.000272 
0.000273 
0.000274 
0.000275 
0.000276 
0.000276 
0.000277 
0.000278 
0.000278 
0.000278 
0.000279 
0.000279 
0.000279 
0.000000 
0.000000 
0.000000 
0.000000 
0.000000 
0.000000 
0.000000 
0.000000 
0.000000 
0.000000 
0.000000 
0.000000 
0.000000 
0.000000 
0.000000 
0.000000 
0.000000 
0.000000 
0.000000 
0.000000 
0.000000 
0.000000 
0.000000 
0.000000 
0.000000 
0.000000 
0.000000 
0.000000 
0.000000 
0.000000 
0.000000 
0.000000 
0.000000 
0.000000 
0.000000 
0.000000 
0.000000 
0.000000 
0.000000 
0.000000 
0.000000 
0.000000 
0.000000 
0.000000 
0.000000 
0.000000 
0.000000 
0.000000 
0.000000 
0.000000 
0.000000 
0.000000 
0.000000 
0.000000 
0.000000 
0.000000 
0.000000 
0.000000 
0.000000 
0.000000 
0.000000 
0.000000 
0.000000 
0.000000 
0.000000 
0.000000 
0.000000 
0.000000 
0.000000 
0.000000 
0.000000 
0.000000 
0.000000 
0.000000 
0.000000 
0.000000 
0.000000 
0.000000 
0.000000 
0.000000 
0.000000 
0.000000 
0.000000 
0.000000 
0.000000 
0.000000 
0.000000 
0.000000 
0.000000 
0.000000 
0.000000 
0.000000 
0.000000 
0.000000 
0.000000 
0.000000 
0.000000 
0.000000 
0.000000 
0.000000 
0.000000 
0.000000 
0.000000 
0.000000 
0.000000 
0.000000 
0.000000 
0.000000 
0.000000 
0.000000 
0.000000 
0.000000 
0.000000 
0.000001 
0.000001 
0.000001 
0.000001 
0.000001 
0.000001 
0.000001 
0.000001 
0.000001 
0.000001 
0.000001 
0.000001 
0.000001 
0.000001 
0.000001 
0.000002 
0.000002 
0.000002 
0.000002 
0.000002 
0.000002 
0.000002 
0.000002 
0.000003 
0.000003 
0.000003 
0.000003 
0.000003 
0.000003 
0.000004 
0.000004 
0.000004 
0.000004 
0.000005 
0.000005 
0.000005 
0.000006 
0.000006 
0.000006 
0.000007 
0.000007 
0.000007 
0.000008 
0.000008 
0.000009 
0.000009 
0.000010 
0.000010 
0.000011 
0.000011 
0.000012 
0.000012 
0.000013 
0.000014 
0.000015 
0.000015 
0.000016 
0.000017 
0.000018 
0.000019 
0.000020 
0.000020 
0.000021 
0.000022 
0.000024 
0.000025 
0.000026 
0.000027 
0.000028 
0.000030 
0.000031 
0.000032 
0.000034 
0.000035 
0.000037 
0.000038 
0.000040 
0.000042 
0.000043 
0.000045 
0.000047 
0.000049 
0.000051 
0.000053 
0.000055 
0.000057 
0.000059 
0.000061 
0.000064 
0.000066 
0.000068 
0.000071 
0.000073 
0.000076 
0.000079 
0.000081 
0.000084 
0.000087 
0.000090 
0.000093 
0.000096 
0.000099 
0.000102 
0.000105 
0.000109 
0.000112 
0.000115 
0.000119 
0.000122 
0.000126 
0.000130 
0.000133 
0.000137 
0.000141 
0.000145 
0.000148 
0.000152 
0.000156 
0.000160 
0.000164 
0.000168 
0.000172 
0.000176 
0.000181 
0.000185 
0.000189 
0.000193 
0.000198 
0.000202 
0.000206 
0.000210 
0.000215 
0.000219 
0.000223 
0.000228 
0.000232 
0.000236 
0.000241 
0.000245 
0.000249 
0.000253 
0.000258 
0.000262 
0.000266 
0.000270 
0.000274 
0.000278 
0.000283 
0.000287 
0.000290 
0.000294 
0.000298 
0.000302 
0.000306 
0.000309 
0.000313 
0.000317 
0.000320 
0.000323 
0.000327 
0.000330 
0.000333 
0.000336 
0.000339 
0.000342 
0.000345 
0.000347 
0.000350 
0.000352 
0.000355 
0.000357 
0.000359 
0.000361 
0.000363 
0.000365 
0.000366 
0.000368 
0.000369 
0.000370 
0.000372 
0.000373 
0.000373 
0.000374 
0.000375 
0.000375 
0.000376 
0.000376 
0.000376 
0.000000 
0.000000 
0.000000 
0.000000 
0.000000 
0.000000 
0.000000 
0.000000 
0.000000 
0.000000 
0.000000 
0.000000 
0.000000 
0.000000 
0.000000 
0.000000 
0.000000 
0.000000 
0.000000 
0.000000 
0.000000 
0.000000 
0.000000 
0.000000 
0.000000 
0.000000 
0.000000 
0.000000 
0.000000 
0.000000 
0.000000 
0.000000 
0.000000 
0.000000 
0.000000 
0.000000 
0.000000 
0.000000 
0.000000 
0.000000 
0.000000 
0.000000 
0.000000 
0.000000 
0.000000 
0.000000 
0.000000 
0.000000 
0.000000 
0.000000 
0.000000 
0.000000 
0.000000 
0.000000 
0.000000 
0.000000 
0.000000 
0.000000 
0.000000 
0.000000 
0.000000 
0.000000 
0.000000 
0.000000 
0.000000 
0.000000 
0.000000 
0.000000 
0.000000 
0.000000 
0.000000 
0.000000 
0.000000 
0.000000 
0.000000 
0.000000 
0.000000 
0.000000 
0.000000 
0.000000 
0.000000 
0.000000 
0.000000 
0.000000 
0.000000 
0.000000 
0.000000 
0.000000 
0.000000 
0.000000 
0.000000 
0.000000 
0.000000 
0.000000 
0.000000 
0.000000 
0.000000 
0.000000 
0.000000 
0.000000 
0.000000 
0.000000 
0.000000 
0.000000 
0.000000 
0.000000 
0.000000 
0.000000 
0.000000 
0.000001 
0.000001 
0.000001 
0.000001 
0.000001 
0.000001 
0.000001 
0.000001 
0.000001 
0.000001 
0.000001 
0.000001 
0.000001 
0.000001 
0.000001 
0.000001 
0.000002 
0.000002 
0.000002 
0.000002 
0.000002 
0.000002 
0.000002 
0.000002 
0.000003 
0.000003 
0.000003 
0.000003 
0.000003 
0.000004 
0.000004 
0.000004 
0.000004 
0.000005 
0.000005 
0.000005 
0.000006 
0.000006 
0.000006 
0.000007 
0.000007 
0.000007 
0.000008 
0.000008 
0.000009 
0.000009 
0.000010 
0.000010 
0.000011 
0.000012 
0.000012 
0.000013 
0.000014 
0.000014 
0.000015 
0.000016 
0.000017 
0.000018 
0.000018 
0.000019 
0.000020 
0.000021 
0.000023 
0.000024 
0.000025 
0.000026 
0.000027 
0.000029 
0.000030 
0.000031 
0.000033 
0.000034 
0.000036 
0.000038 
0.000039 
0.000041 
0.000043 
0.000045 
0.000047 
0.000049 
0.000051 
0.000053 
0.000055 
0.000057 
0.000060 
0.000062 
0.000064 
0.000067 
0.000070 
0.000072 
0.000075 
0.000078 
0.000081 
0.000084 
0.000087 
0.000090 
0.000093 
0.000097 
0.000100 
0.000104 
0.000107 
0.000111 
0.000114 
0.000118 
0.000122 
0.000126 
0.000130 
0.000134 
0.000138 
0.000142 
0.000147 
0.000151 
0.000156 
0.000160 
0.000165 
0.000169 
0.000174 
0.000179 
0.000184 
0.000188 
0.000193 
0.000198 
0.000203 
0.000209 
0.000214 
0.000219 
0.000224 
0.000229 
0.000235 
0.000240 
0.000245 
0.000251 
0.000256 
0.000262 
0.000267 
0.000273 
0.000278 
0.000283 
0.000289 
0.000294 
0.000300 
0.000305 
0.000311 
0.000316 
0.000322 
0.000327 
0.000332 
0.000338 
0.000343 
0.000348 
0.000353 
0.000358 
0.000364 
0.000369 
0.000373 
0.000378 
0.000383 
0.000388 
0.000393 
0.000397 
0.000402 
0.000406 
0.000410 
0.000414 
0.000418 
0.000422 
0.000426 
0.000430 
0.000434 
0.000437 
0.000440 
0.000444 
0.000447 
0.000450 
0.000452 
0.000455 
0.000458 
0.000460 
0.000462 
0.000464 
0.000466 
0.000468 
0.000470 
0.000471 
0.000473 
0.000474 
0.000475 
0.000475 
0.000476 
0.000477 
0.000477 
0.000477 
0.000000 
0.000000 
0.000000 
0.000000 
0.000000 
0.000000 
0.000000 
0.000000 
0.000000 
0.000000 
0.000000 
0.000000 
0.000000 
0.000000 
0.000000 
0.000000 
0.000000 
0.000000 
0.000000 
0.000000 
0.000000 
0.000000 
0.000000 
0.000000 
0.000000 
0.000000 
0.000000 
0.000000 
0.000000 
0.000000 
0.000000 
0.000000 
0.000000 
0.000000 
0.000000 
0.000000 
0.000000 
0.000000 
0.000000 
0.000000 
0.000000 
0.000000 
0.000000 
0.000000 
0.000000 
0.000000 
0.000000 
0.000000 
0.000000 
0.000000 
0.000000 
0.000000 
0.000000 
0.000000 
0.000000 
0.000000 
0.000000 
0.000000 
0.000000 
0.000000 
0.000000 
0.000000 
0.000000 
0.000000 
0.000000 
0.000000 
0.000000 
0.000000 
0.000000 
0.000000 
0.000000 
0.000000 
0.000000 
0.000000 
0.000000 
0.000000 
0.000000 
0.000000 
0.000000 
0.000000 
0.000000 
0.000000 
0.000000 
0.000000 
0.000000 
0.000000 
0.000000 
0.000000 
0.000000 
0.000000 
0.000000 
0.000000 
0.000000 
0.000000 
0.000000 
0.000000 
0.000000 
0.000000 
0.000000 
0.000000 
0.000000 
0.000000 
0.000000 
0.000000 
0.000000 
0.000000 
0.000000 
0.000001 
0.000001 
0.000001 
0.000001 
0.000001 
0.000001 
0.000001 
0.000001 
0.000001 
0.000001 
0.000001 
0.000001 
0.000001 
0.000001 
0.000001 
0.000002 
0.000002 
0.000002 
0.000002 
0.000002 
0.000002 
0.000002 
0.000003 
0.000003 
0.000003 
0.000003 
0.000003 
0.000003 
0.000004 
0.000004 
0.000004 
0.000004 
0.000005 
0.000005 
0.000005 
0.000006 
0.000006 
0.000006 
0.000007 
0.000007 
0.000008 
0.000008 
0.000009 
0.000009 
0.000010 
0.000010 
0.000011 
0.000011 
0.000012 
0.000013 
0.000013 
0.000014 
0.000015 
0.000016 
0.000017 
0.000018 
0.000018 
0.000019 
0.000020 
0.000022 
0.000023 
0.000024 
0.000025 
0.000026 
0.000028 
0.000029 
0.000030 
0.000032 
0.000033 
0.000035 
0.000037 
0.000038 
0.000040 
0.000042 
0.000044 
0.000046 
0.000048 
0.000050 
0.000052 
0.000055 
0.000057 
0.000060 
0.000062 
0.000065 
0.000067 
0.000070 
0.000073 
0.000076 
0.000079 
0.000082 
0.000085 
0.000089 
0.000092 
0.000096 
0.000099 
0.000103 
0.000107 
0.000110 
0.000114 
0.000118 
0.000123 
0.000127 
0.000131 
0.000136 
0.000140 
0.000145 
0.000149 
0.000154 
0.000159 
0.000164 
0.000169 
0.000174 
0.000180 
0.000185 
0.000190 
0.000196 
0.000201 
0.000207 
0.000213 
0.000219 
0.000225 
0.000231 
0.000237 
0.000243 
0.000249 
0.000255 
0.000261 
0.000268 
0.000274 
0.000281 
0.000287 
0.000294 
0.000300 
0.000307 
0.000313 
0.000320 
0.000327 
0.000333 
0.000340 
0.000347 
0.000353 
0.000360 
0.000367 
0.000373 
0.000380 
0.000387 
0.000393 
0.000400 
0.000406 
0.000413 
0.000419 
0.000426 
0.000432 
0.000438 
0.000444 
0.000450 
0.000456 
0.000462 
0.000468 
0.000474 
0.000480 
0.000485 
0.000491 
0.000496 
0.000501 
0.000506 
0.000511 
0.000516 
0.000521 
0.000525 
0.000530 
0.000534 
0.000538 
0.000542 
0.000546 
0.000549 
0.000553 
0.000556 
0.000559 
0.000562 
0.000565 
0.000567 
0.000570 
0.000572 
0.000574 
0.000575 
0.000577 
0.000578 
0.000580 
0.000581 
0.000581 
0.000582 
0.000582 
0.000583 
0.000000 
0.000000 
0.000000 
0.000000 
0.000000 
0.000000 
0.000000 
0.000000 
0.000000 
0.000000 
0.000000 
0.000000 
0.000000 
0.000000 
0.000000 
0.000000 
0.000000 
0.000000 
0.000000 
0.000000 
0.000000 
0.000000 
0.000000 
0.000000 
0.000000 
0.000000 
0.000000 
0.000000 
0.000000 
0.000000 
0.000000 
0.000000 
0.000000 
0.000000 
0.000000 
0.000000 
0.000000 
0.000000 
0.000000 
0.000000 
0.000000 
0.000000 
0.000000 
0.000000 
0.000000 
0.000000 
0.000000 
0.000000 
0.000000 
0.000000 
0.000000 
0.000000 
0.000000 
0.000000 
0.000000 
0.000000 
0.000000 
0.000000 
0.000000 
0.000000 
0.000000 
0.000000 
0.000000 
0.000000 
0.000000 
0.000000 
0.000000 
0.000000 
0.000000 
0.000000 
0.000000 
0.000000 
0.000000 
0.000000 
0.000000 
0.000000 
0.000000 
0.000000 
0.000000 
0.000000 
0.000000 
0.000000 
0.000000 
0.000000 
0.000000 
0.000000 
0.000000 
0.000000 
0.000000 
0.000000 
0.000000 
0.000000 
0.000000 
0.000000 
0.000000 
0.000000 
0.000000 
0.000000 
0.000000 
0.000000 
0.000000 
0.000000 
0.000000 
0.000000 
0.000001 
0.000001 
0.000001 
0.000001 
0.000001 
0.000001 
0.000001 
0.000001 
0.000001 
0.000001 
0.000001 
0.000001 
0.000001 
0.000001 
0.000001 
0.000002 
0.000002 
0.000002 
0.000002 
0.000002 
0.000002 
0.000002 
0.000002 
0.000003 
0.000003 
0.000003 
0.000003 
0.000003 
0.000004 
0.000004 
0.000004 
0.000004 
0.000005 
0.000005 
0.000005 
0.000006 
0.000006 
0.000006 
0.000007 
0.000007 
0.000008 
0.000008 
0.000009 
0.000009 
0.000010 
0.000010 
0.000011 
0.000012 
0.000012 
0.000013 
0.000014 
0.000014 
0.000015 
0.000016 
0.000017 
0.000018 
0.000019 
0.000020 
0.000021 
0.000022 
0.000023 
0.000025 
0.000026 
0.000027 
0.000029 
0.000030 
0.000031 
0.000033 
0.000035 
0.000036 
0.000038 
0.000040 
0.000042 
0.000044 
0.000046 
0.000048 
0.000050 
0.000053 
0.000055 
0.000057 
0.000060 
0.000063 
0.000065 
0.000068 
0.000071 
0.000074 
0.000077 
0.000081 
0.000084 
0.000087 
0.000091 
0.000094 
0.000098 
0.000102 
0.000106 
0.000110 
0.000114 
0.000118 
0.000123 
0.000127 
0.000132 
0.000137 
0.000141 
0.000146 
0.000151 
0.000157 
0.000162 
0.000167 
0.000173 
0.000178 
0.000184 
0.000190 
0.000196 
0.000202 
0.000208 
0.000214 
0.000221 
0.000227 
0.000234 
0.000240 
0.000247 
0.000254 
0.000261 
0.000268 
0.000275 
0.000282 
0.000290 
0.000297 
0.000304 
0.000312 
0.000319 
0.000327 
0.000335 
0.000342 
0.000350 
0.000358 
0.000366 
0.000374 
0.000382 
0.000389 
0.000397 
0.000405 
0.000413 
0.000421 
0.000429 
0.000437 
0.000445 
0.000453 
0.000461 
0.000469 
0.000476 
0.000484 
0.000492 
0.000500 
0.000507 
0.000515 
0.000522 
0.000529 
0.000537 
0.000544 
0.000551 
0.000558 
0.000565 
0.000571 
0.000578 
0.000584 
0.000591 
0.000597 
0.000603 
0.000609 
0.000615 
0.000620 
0.000626 
0.000631 
0.000636 
0.000641 
0.000645 
0.000650 
0.000654 
0.000658 
0.000662 
0.000666 
0.000669 
0.000672 
0.000675 
0.000678 
0.000681 
0.000683 
0.000685 
0.000687 
0.000689 
0.000690 
0.000691 
0.000692 
0.000693 
0.000694 
0.000694 
0.000000 
0.000000 
0.000000 
0.000000 
0.000000 
0.000000 
0.000000 
0.000000 
0.000000 
0.000000 
0.000000 
0.000000 
0.000000 
0.000000 
0.000000 
0.000000 
0.000000 
0.000000 
0.000000 
0.000000 
0.000000 
0.000000 
0.000000 
0.000000 
0.000000 
0.000000 
0.000000 
0.000000 
0.000000 
0.000000 
0.000000 
0.000000 
0.000000 
0.000000 
0.000000 
0.000000 
0.000000 
0.000000 
0.000000 
0.000000 
0.000000 
0.000000 
0.000000 
0.000000 
0.000000 
0.000000 
0.000000 
0.000000 
0.000000 
0.000000 
0.000000 
0.000000 
0.000000 
0.000000 
0.000000 
0.000000 
0.000000 
0.000000 
0.000000 
0.000000 
0.000000 
0.000000 
0.000000 
0.000000 
0.000000 
0.000000 
0.000000 
0.000000 
0.000000 
0.000000 
0.000000 
0.000000 
0.000000 
0.000000 
0.000000 
0.000000 
0.000000 
0.000000 
0.000000 
0.000000 
0.000000 
0.000000 
0.000000 
0.000000 
0.000000 
0.000000 
0.000000 
0.000000 
0.000000 
0.000000 
0.000000 
0.000000 
0.000000 
0.000000 
0.000000 
0.000000 
0.000000 
0.000000 
0.000000 
0.000000 
0.000000 
0.000000 
0.000001 
0.000001 
0.000001 
0.000001 
0.000001 
0.000001 
0.000001 
0.000001 
0.000001 
0.000001 
0.000001 
0.000001 
0.000001 
0.000001 
0.000001 
0.000002 
0.000002 
0.000002 
0.000002 
0.000002 
0.000002 
0.000002 
0.000003 
0.000003 
0.000003 
0.000003 
0.000003 
0.000004 
0.000004 
0.000004 
0.000004 
0.000005 
0.000005 
0.000005 
0.000006 
0.000006 
0.000006 
0.000007 
0.000007 
0.000008 
0.000008 
0.000009 
0.000009 
0.000010 
0.000010 
0.000011 
0.000011 
0.000012 
0.000013 
0.000014 
0.000014 
0.000015 
0.000016 
0.000017 
0.000018 
0.000019 
0.000020 
0.000021 
0.000022 
0.000023 
0.000025 
0.000026 
0.000027 
0.000029 
0.000030 
0.000032 
0.000034 
0.000035 
0.000037 
0.000039 
0.000041 
0.000043 
0.000045 
0.000047 
0.000049 
0.000052 
0.000054 
0.000057 
0.000059 
0.000062 
0.000065 
0.000068 
0.000071 
0.000074 
0.000077 
0.000080 
0.000084 
0.000087 
0.000091 
0.000095 
0.000099 
0.000103 
0.000107 
0.000111 
0.000115 
0.000120 
0.000124 
0.000129 
0.000134 
0.000139 
0.000144 
0.000149 
0.000155 
0.000160 
0.000166 
0.000172 
0.000178 
0.000184 
0.000190 
0.000196 
0.000203 
0.000209 
0.000216 
0.000223 
0.000230 
0.000237 
0.000244 
0.000251 
0.000259 
0.000267 
0.000274 
0.000282 
0.000290 
0.000298 
0.000306 
0.000314 
0.000323 
0.000331 
0.000340 
0.000348 
0.000357 
0.000366 
0.000374 
0.000383 
0.000392 
0.000401 
0.000410 
0.000419 
0.000429 
0.000438 
0.000447 
0.000456 
0.000466 
0.000475 
0.000484 
0.000493 
0.000503 
0.000512 
0.000521 
0.000530 
0.000540 
0.000549 
0.000558 
0.000567 
0.000576 
0.000585 
0.000594 
0.000603 
0.000611 
0.000620 
0.000628 
0.000637 
0.000645 
0.000653 
0.000661 
0.000669 
0.000676 
0.000684 
0.000691 
0.000699 
0.000706 
0.000713 
0.000719 
0.000726 
0.000732 
0.000738 
0.000744 
0.000750 
0.000755 
0.000760 
0.000765 
0.000770 
0.000775 
0.000779 
0.000783 
0.000787 
0.000790 
0.000793 
0.000796 
0.000799 
0.000802 
0.000804 
0.000806 
0.000807 
0.000809 
0.000810 
0.000811 
0.000811 
0.000812 
0.000000 
0.000000 
0.000000 
0.000000 
0.000000 
0.000000 
0.000000 
0.000000 
0.000000 
0.000000 
0.000000 
0.000000 
0.000000 
0.000000 
0.000000 
0.000000 
0.000000 
0.000000 
0.000000 
0.000000 
0.000000 
0.000000 
0.000000 
0.000000 
0.000000 
0.000000 