# vtk DataFile Version 3.0
results.vtk
ASCII
DATASET RECTILINEAR_GRID
DIMENSIONS 301 301 1
X_COORDINATES 301 double
0.000000 0.003333 0.006667 0.010000 0.013333 0.016667 0.020000 0.023333 0.026667 0.030000 0.033333 0.036667 0.040000 0.043333 0.046667 0.050000 0.053333 0.056667 0.060000 0.063333 0.066667 0.070000 0.073333 0.076667 0.080000 0.083333 0.086667 0.090000 0.093333 0.096667 0.100000 0.103333 0.106667 0.110000 0.113333 0.116667 0.120000 0.123333 0.126667 0.130000 0.133333 0.136667 0.140000 0.143333 0.146667 0.150000 0.153333 0.156667 0.160000 0.163333 0.166667 0.170000 0.173333 0.176667 0.180000 0.183333 0.186667 0.190000 0.193333 0.196667 0.200000 0.203333 0.206667 0.210000 0.213333 0.216667 0.220000 0.223333 0.226667 0.230000 0.233333 0.236667 0.240000 0.243333 0.246667 0.250000 0.253333 0.256667 0.260000 0.263333 0.266667 0.270000 0.273333 0.276667 0.280000 0.283333 0.286667 0.290000 0.293333 0.296667 0.300000 0.303333 0.306667 0.310000 0.313333 0.316667 0.320000 0.323333 0.326667 0.330000 0.333333 0.336667 0.340000 0.343333 0.346667 0.350000 0.353333 0.356667 0.360000 0.363333 0.366667 0.370000 0.373333 0.376667 0.380000 0.383333 0.386667 0.390000 0.393333 0.396667 0.400000 0.403333 0.406667 0.410000 0.413333 0.416667 0.420000 0.423333 0.426667 0.430000 0.433333 0.436667 0.440000 0.443333 0.446667 0.450000 0.453333 0.456667 0.460000 0.463333 0.466667 0.470000 0.473333 0.476667 0.480000 0.483333 0.486667 0.490000 0.493333 0.496667 0.500000 0.503333 0.506667 0.510000 0.513333 0.516667 0.520000 0.523333 0.526667 0.530000 0.533333 0.536667 0.540000 0.543333 0.546667 0.550000 0.553333 0.556667 0.560000 0.563333 0.566667 0.570000 0.573333 0.576667 0.580000 0.583333 0.586667 0.590000 0.593333 0.596667 0.600000 0.603333 0.606667 0.610000 0.613333 0.616667 0.620000 0.623333 0.626667 0.630000 0.633333 0.636667 0.640000 0.643333 0.646667 0.650000 0.653333 0.656667 0.660000 0.663333 0.666667 0.670000 0.673333 0.676667 0.680000 0.683333 0.686667 0.690000 0.693333 0.696667 0.700000 0.703333 0.706667 0.710000 0.713333 0.716667 0.720000 0.723333 0.726667 0.730000 0.733333 0.736667 0.740000 0.743333 0.746667 0.750000 0.753333 0.756667 0.760000 0.763333 0.766667 0.770000 0.773333 0.776667 0.780000 0.783333 0.786667 0.790000 0.793333 0.796667 0.800000 0.803333 0.806667 0.810000 0.813333 0.816667 0.820000 0.823333 0.826667 0.830000 0.833333 0.836667 0.840000 0.843333 0.846667 0.850000 0.853333 0.856667 0.860000 0.863333 0.866667 0.870000 0.873333 0.876667 0.880000 0.883333 0.886667 0.890000 0.893333 0.896667 0.900000 0.903333 0.906667 0.910000 0.913333 0.916667 0.920000 0.923333 0.926667 0.930000 0.933333 0.936667 0.940000 0.943333 0.946667 0.950000 0.953333 0.956667 0.960000 0.963333 0.966667 0.970000 0.973333 0.976667 0.980000 0.983333 0.986667 0.990000 0.993333 0.996667 1.000000 
Y_COORDINATES 301 double
0.000000 0.003333 0.006667 0.010000 0.013333 0.016667 0.020000 0.023333 0.026667 0.030000 0.033333 0.036667 0.040000 0.043333 0.046667 0.050000 0.053333 0.056667 0.060000 0.063333 0.066667 0.070000 0.073333 0.076667 0.080000 0.083333 0.086667 0.090000 0.093333 0.096667 0.100000 0.103333 0.106667 0.110000 0.113333 0.116667 0.120000 0.123333 0.126667 0.130000 0.133333 0.136667 0.140000 0.143333 0.146667 0.150000 0.153333 0.156667 0.160000 0.163333 0.166667 0.170000 0.173333 0.176667 0.180000 0.183333 0.186667 0.190000 0.193333 0.196667 0.200000 0.203333 0.206667 0.210000 0.213333 0.216667 0.220000 0.223333 0.226667 0.230000 0.233333 0.236667 0.240000 0.243333 0.246667 0.250000 0.253333 0.256667 0.260000 0.263333 0.266667 0.270000 0.273333 0.276667 0.280000 0.283333 0.286667 0.290000 0.293333 0.296667 0.300000 0.303333 0.306667 0.310000 0.313333 0.316667 0.320000 0.323333 0.326667 0.330000 0.333333 0.336667 0.340000 0.343333 0.346667 0.350000 0.353333 0.356667 0.360000 0.363333 0.366667 0.370000 0.373333 0.376667 0.380000 0.383333 0.386667 0.390000 0.393333 0.396667 0.400000 0.403333 0.406667 0.410000 0.413333 0.416667 0.420000 0.423333 0.426667 0.430000 0.433333 0.436667 0.440000 0.443333 0.446667 0.450000 0.453333 0.456667 0.460000 0.463333 0.466667 0.470000 0.473333 0.476667 0.480000 0.483333 0.486667 0.490000 0.493333 0.496667 0.500000 0.503333 0.506667 0.510000 0.513333 0.516667 0.520000 0.523333 0.526667 0.530000 0.533333 0.536667 0.540000 0.543333 0.546667 0.550000 0.553333 0.556667 0.560000 0.563333 0.566667 0.570000 0.573333 0.576667 0.580000 0.583333 0.586667 0.590000 0.593333 0.596667 0.600000 0.603333 0.606667 0.610000 0.613333 0.616667 0.620000 0.623333 0.626667 0.630000 0.633333 0.636667 0.640000 0.643333 0.646667 0.650000 0.653333 0.656667 0.660000 0.663333 0.666667 0.670000 0.673333 0.676667 0.680000 0.683333 0.686667 0.690000 0.693333 0.696667 0.700000 0.703333 0.706667 0.710000 0.713333 0.716667 0.720000 0.723333 0.726667 0.730000 0.733333 0.736667 0.740000 0.743333 0.746667 0.750000 0.753333 0.756667 0.760000 0.763333 0.766667 0.770000 0.773333 0.776667 0.780000 0.783333 0.786667 0.790000 0.793333 0.796667 0.800000 0.803333 0.806667 0.810000 0.813333 0.816667 0.820000 0.823333 0.826667 0.830000 0.833333 0.836667 0.840000 0.843333 0.846667 0.850000 0.853333 0.856667 0.860000 0.863333 0.866667 0.870000 0.873333 0.876667 0.880000 0.883333 0.886667 0.890000 0.893333 0.896667 0.900000 0.903333 0.906667 0.910000 0.913333 0.916667 0.920000 0.923333 0.926667 0.930000 0.933333 0.936667 0.940000 0.943333 0.946667 0.950000 0.953333 0.956667 0.960000 0.963333 0.966667 0.970000 0.973333 0.976667 0.980000 0.983333 0.986667 0.990000 0.993333 0.996667 1.000000 
Z_COORDINATES 1 double
0
POINT_DATA 90601 
FIELD FieldData 1 
Concentração 1 90601 double 
0.000000 
0.000000 
0.000000 
0.000000 
0.000000 
0.000000 
0.000000 
0.000000 
0.000000 
0.000000 
0.000000 
0.000000 
0.000000 
0.000000 
0.000000 
0.000000 
0.000000 
0.000000 
0.000000 
0.000000 
0.000000 
0.000000 
0.000000 
0.000000 
0.000000 
0.000000 
0.000000 
0.000000 
0.000000 
0.000000 
0.000000 
0.000000 
0.000000 
0.000000 
0.000000 
0.000000 
0.000000 
0.000000 
0.000000 
0.000000 
0.000000 
0.000000 
0.000000 
0.000000 
0.000000 
0.000000 
0.000000 
0.000000 
0.000000 
0.000000 
0.000000 
0.000000 
0.000000 
0.000000 
0.000000 
0.000000 
0.000000 
0.000000 
0.000000 
0.000000 
0.000000 
0.000000 
0.000000 
0.000000 
0.000000 
0.000000 
0.000000 
0.000000 
0.000000 
0.000000 
0.000000 
0.000000 
0.000000 
0.000000 
0.000000 
0.000000 
0.000001 
0.000001 
0.000001 
0.000001 
0.000001 
0.000001 
0.000001 
0.000001 
0.000001 
0.000001 
0.000001 
0.000001 
0.000001 
0.000001 
0.000002 
0.000002 
0.000002 
0.000002 
0.000002 
0.000002 
0.000002 
0.000002 
0.000003 
0.000003 
0.000003 
0.000003 
0.000004 
0.000004 
0.000004 
0.000004 
0.000005 
0.000005 
0.000005 
0.000006 
0.000006 
0.000006 
0.000007 
0.000007 
0.000008 
0.000008 
0.000009 
0.000009 
0.000010 
0.000011 
0.000011 
0.000012 
0.000013 
0.000013 
0.000014 
0.000015 
0.000016 
0.000017 
0.000018 
0.000019 
0.000020 
0.000021 
0.000023 
0.000024 
0.000025 
0.000027 
0.000028 
0.000030 
0.000032 
0.000033 
0.000035 
0.000037 
0.000039 
0.000041 
0.000043 
0.000046 
0.000048 
0.000050 
0.000053 
0.000056 
0.000058 
0.000061 
0.000064 
0.000067 
0.000071 
0.000074 
0.000078 
0.000081 
0.000085 
0.000089 
0.000093 
0.000097 
0.000102 
0.000106 
0.000111 
0.000116 
0.000121 
0.000126 
0.000131 
0.000136 
0.000142 
0.000148 
0.000154 
0.000160 
0.000166 
0.000173 
0.000179 
0.000186 
0.000193 
0.000201 
0.000208 
0.000216 
0.000223 
0.000231 
0.000240 
0.000248 
0.000256 
0.000265 
0.000274 
0.000283 
0.000292 
0.000302 
0.000312 
0.000321 
0.000331 
0.000342 
0.000352 
0.000363 
0.000373 
0.000384 
0.000395 
0.000406 
0.000418 
0.000429 
0.000441 
0.000453 
0.000465 
0.000477 
0.000489 
0.000501 
0.000514 
0.000527 
0.000539 
0.000552 
0.000565 
0.000578 
0.000591 
0.000604 
0.000618 
0.000631 
0.000645 
0.000658 
0.000672 
0.000685 
0.000699 
0.000713 
0.000726 
0.000740 
0.000754 
0.000768 
0.000782 
0.000795 
0.000809 
0.000823 
0.000837 
0.000850 
0.000864 
0.000878 
0.000891 
0.000905 
0.000918 
0.000932 
0.000945 
0.000958 
0.000971 
0.000984 
0.000997 
0.001010 
0.001023 
0.001035 
0.001048 
0.001060 
0.001072 
0.001084 
0.001096 
0.001108 
0.001119 
0.001130 
0.001142 
0.001153 
0.001163 
0.001174 
0.001184 
0.001195 
0.001205 
0.001214 
0.001224 
0.001233 
0.001242 
0.001251 
0.001260 
0.001268 
0.001276 
0.001284 
0.001292 
0.001299 
0.001306 
0.001313 
0.001320 
0.001326 
0.001332 
0.001338 
0.001344 
0.001349 
0.001354 
0.001358 
0.001363 
0.001367 
0.001371 
0.001374 
0.001378 
0.001381 
0.001383 
0.001386 
0.001388 
0.001389 
0.001391 
0.001392 
0.001393 
0.001394 
0.001394 
0.000000 
0.000000 
0.000000 
0.000000 
0.000000 
0.000000 
0.000000 
0.000000 
0.000000 
0.000000 
0.000000 
0.000000 
0.000000 
0.000000 
0.000000 
0.000000 
0.000000 
0.000000 
0.000000 
0.000000 
0.000000 
0.000000 
0.000000 
0.000000 
0.000000 
0.000000 
0.000000 
0.000000 
0.000000 
0.000000 
0.000000 
0.000000 
0.000000 
0.000000 
0.000000 
0.000000 
0.000000 
0.000000 
0.000000 
0.000000 
0.000000 
0.000000 
0.000000 
0.000000 
0.000000 
0.000000 
0.000000 
0.000000 
0.000000 
0.000000 
0.000000 
0.000000 
0.000000 
0.000000 
0.000000 
0.000000 
0.000000 
0.000000 
0.000000 
0.000000 
0.000000 
0.000000 
0.000000 
0.000000 
0.000000 
0.000000 
0.000000 
0.000001 
0.000001 
0.000001 
0.000001 
0.000001 
0.000001 
0.000001 
0.000001 
0.000001 
0.000001 
0.000001 
0.000001 
0.000001 
0.000001 
0.000002 
0.000002 
0.000002 
0.000002 
0.000002 
0.000002 
0.000002 
0.000003 
0.000003 
0.000003 
0.000003 
0.000003 
0.000004 
0.000004 
0.000004 
0.000005 
0.000005 
0.000005 
0.000006 
0.000006 
0.000007 
0.000007 
0.000008 
0.000008 
0.000009 
0.000009 
0.000010 
0.000011 
0.000011 
0.000012 
0.000013 
0.000014 
0.000015 
0.000016 
0.000017 
0.000018 
0.000019 
0.000020 
0.000021 
0.000023 
0.000024 
0.000026 
0.000027 
0.000029 
0.000031 
0.000032 
0.000034 
0.000036 
0.000039 
0.000041 
0.000043 
0.000046 
0.000048 
0.000051 
0.000054 
0.000057 
0.000060 
0.000064 
0.000067 
0.000071 
0.000074 
0.000078 
0.000083 
0.000087 
0.000092 
0.000096 
0.000101 
0.000106 
0.000112 
0.000117 
0.000123 
0.000129 
0.000135 
0.000142 
0.000149 
0.000156 
0.000163 
0.000171 
0.000179 
0.000187 
0.000195 
0.000204 
0.000213 
0.000222 
0.000232 
0.000242 
0.000252 
0.000263 
0.000274 
0.000285 
0.000297 
0.000309 
0.000321 
0.000334 
0.000347 
0.000360 
0.000374 
0.000388 
0.000403 
0.000417 
0.000433 
0.000448 
0.000464 
0.000481 
0.000497 
0.000514 
0.000532 
0.000550 
0.000568 
0.000587 
0.000606 
0.000625 
0.000645 
0.000665 
0.000685 
0.000706 
0.000727 
0.000748 
0.000770 
0.000792 
0.000815 
0.000837 
0.000860 
0.000884 
0.000908 
0.000931 
0.000956 
0.000980 
0.001005 
0.001030 
0.001055 
0.001081 
0.001106 
0.001132 
0.001158 
0.001185 
0.001211 
0.001238 
0.001265 
0.001291 
0.001318 
0.001346 
0.001373 
0.001400 
0.001428 
0.001455 
0.001483 
0.001510 
0.001538 
0.001565 
0.001593 
0.001620 
0.001648 
0.001675 
0.001703 
0.001730 
0.001757 
0.001784 
0.001811 
0.001838 
0.001865 
0.001892 
0.001918 
0.001944 
0.001970 
0.001996 
0.002022 
0.002047 
0.002072 
0.002097 
0.002121 
0.002146 
0.002170 
0.002193 
0.002217 
0.002239 
0.002262 
0.002284 
0.002306 
0.002328 
0.002349 
0.002370 
0.002390 
0.002410 
0.002429 
0.002448 
0.002467 
0.002485 
0.002503 
0.002520 
0.002537 
0.002553 
0.002569 
0.002584 
0.002599 
0.002613 
0.002627 
0.002640 
0.002653 
0.002665 
0.002676 
0.002687 
0.002698 
0.002708 
0.002717 
0.002726 
0.002734 
0.002742 
0.002749 
0.002755 
0.002761 
0.002766 
0.002771 
0.002775 
0.002779 
0.002782 
0.002784 
0.002786 
0.002787 
0.002788 
0.000000 
0.000000 
0.000000 
0.000000 
0.000000 
0.000000 
0.000000 
0.000000 
0.000000 
0.000000 
0.000000 
0.000000 
0.000000 
0.000000 
0.000000 
0.000000 
0.000000 
0.000000 
0.000000 
0.000000 
0.000000 
0.000000 
0.000000 
0.000000 
0.000000 
0.000000 
0.000000 
0.000000 
0.000000 
0.000000 
0.000000 
0.000000 
0.000000 
0.000000 
0.000000 
0.000000 
0.000000 
0.000000 
0.000000 
0.000000 
0.000000 
0.000000 
0.000000 
0.000000 
0.000000 
0.000000 
0.000000 
0.000000 
0.000000 
0.000000 
0.000000 
0.000000 
0.000000 
0.000000 
0.000000 
0.000000 
0.000000 
0.000000 
0.000000 
0.000000 
0.000000 
0.000000 
0.000001 
0.000001 
0.000001 
0.000001 
0.000001 
0.000001 
0.000001 
0.000001 
0.000001 
0.000001 
0.000001 
0.000001 
0.000001 
0.000001 
0.000002 
0.000002 
0.000002 
0.000002 
0.000002 
0.000002 
0.000003 
0.000003 
0.000003 
0.000003 
0.000003 
0.000004 
0.000004 
0.000004 
0.000005 
0.000005 
0.000005 
0.000006 
0.000006 
0.000007 
0.000007 
0.000008 
0.000008 
0.000009 
0.000009 
0.000010 
0.000011 
0.000011 
0.000012 
0.000013 
0.000014 
0.000015 
0.000016 
0.000017 
0.000018 
0.000019 
0.000021 
0.000022 
0.000024 
0.000025 
0.000027 
0.000028 
0.000030 
0.000032 
0.000034 
0.000036 
0.000039 
0.000041 
0.000043 
0.000046 
0.000049 
0.000052 
0.000055 
0.000058 
0.000062 
0.000065 
0.000069 
0.000073 
0.000077 
0.000082 
0.000086 
0.000091 
0.000096 
0.000101 
0.000107 
0.000112 
0.000119 
0.000125 
0.000131 
0.000138 
0.000145 
0.000153 
0.000161 
0.000169 
0.000177 
0.000186 
0.000195 
0.000205 
0.000214 
0.000225 
0.000235 
0.000246 
0.000258 
0.000270 
0.000282 
0.000295 
0.000308 
0.000321 
0.000336 
0.000350 
0.000365 
0.000381 
0.000397 
0.000413 
0.000430 
0.000448 
0.000466 
0.000484 
0.000503 
0.000523 
0.000543 
0.000564 
0.000585 
0.000607 
0.000630 
0.000652 
0.000676 
0.000700 
0.000725 
0.000750 
0.000776 
0.000802 
0.000829 
0.000856 
0.000884 
0.000913 
0.000942 
0.000971 
0.001002 
0.001032 
0.001063 
0.001095 
0.001127 
0.001160 
0.001193 
0.001227 
0.001261 
0.001296 
0.001331 
0.001367 
0.001402 
0.001439 
0.001476 
0.001513 
0.001550 
0.001588 
0.001627 
0.001665 
0.001704 
0.001743 
0.001783 
0.001822 
0.001862 
0.001902 
0.001943 
0.001983 
0.002024 
0.002065 
0.002106 
0.002147 
0.002188 
0.002229 
0.002271 
0.002312 
0.002353 
0.002395 
0.002436 
0.002477 
0.002518 
0.002559 
0.002600 
0.002641 
0.002682 
0.002722 
0.002762 
0.002802 
0.002842 
0.002882 
0.002921 
0.002960 
0.002998 
0.003037 
0.003075 
0.003112 
0.003149 
0.003186 
0.003222 
0.003258 
0.003293 
0.003328 
0.003363 
0.003396 
0.003430 
0.003462 
0.003495 
0.003526 
0.003557 
0.003588 
0.003617 
0.003647 
0.003675 
0.003703 
0.003730 
0.003756 
0.003782 
0.003807 
0.003831 
0.003855 
0.003878 
0.003900 
0.003921 
0.003941 
0.003961 
0.003980 
0.003998 
0.004015 
0.004032 
0.004048 
0.004062 
0.004076 
0.004089 
0.004102 
0.004113 
0.004124 
0.004133 
0.004142 
0.004150 
0.004157 
0.004163 
0.004169 
0.004173 
0.004177 
0.004179 
0.004181 
0.004182 
0.000000 
0.000000 
0.000000 
0.000000 
0.000000 
0.000000 
0.000000 
0.000000 
0.000000 
0.000000 
0.000000 
0.000000 
0.000000 
0.000000 
0.000000 
0.000000 
0.000000 
0.000000 
0.000000 
0.000000 
0.000000 
0.000000 
0.000000 
0.000000 
0.000000 
0.000000 
0.000000 
0.000000 
0.000000 
0.000000 
0.000000 
0.000000 
0.000000 
0.000000 
0.000000 
0.000000 
0.000000 
0.000000 
0.000000 
0.000000 
0.000000 
0.000000 
0.000000 
0.000000 
0.000000 
0.000000 
0.000000 
0.000000 
0.000000 
0.000000 
0.000000 
0.000000 
0.000000 
0.000000 
0.000000 
0.000000 
0.000000 
0.000000 
0.000000 
0.000001 
0.000001 
0.000001 
0.000001 
0.000001 
0.000001 
0.000001 
0.000001 
0.000001 
0.000001 
0.000001 
0.000001 
0.000001 
0.000002 
0.000002 
0.000002 
0.000002 
0.000002 
0.000002 
0.000002 
0.000003 
0.000003 
0.000003 
0.000003 
0.000004 
0.000004 
0.000004 
0.000005 
0.000005 
0.000005 
0.000006 
0.000006 
0.000007 
0.000007 
0.000008 
0.000008 
0.000009 
0.000009 
0.000010 
0.000011 
0.000012 
0.000013 
0.000013 
0.000014 
0.000015 
0.000016 
0.000018 
0.000019 
0.000020 
0.000022 
0.000023 
0.000025 
0.000026 
0.000028 
0.000030 
0.000032 
0.000034 
0.000036 
0.000038 
0.000041 
0.000043 
0.000046 
0.000049 
0.000052 
0.000055 
0.000059 
0.000062 
0.000066 
0.000070 
0.000074 
0.000078 
0.000083 
0.000088 
0.000093 
0.000098 
0.000104 
0.000110 
0.000116 
0.000122 
0.000129 
0.000136 
0.000144 
0.000151 
0.000160 
0.000168 
0.000177 
0.000186 
0.000196 
0.000206 
0.000216 
0.000227 
0.000238 
0.000250 
0.000263 
0.000275 
0.000289 
0.000302 
0.000317 
0.000331 
0.000347 
0.000363 
0.000379 
0.000396 
0.000414 
0.000432 
0.000451 
0.000471 
0.000491 
0.000512 
0.000533 
0.000556 
0.000578 
0.000602 
0.000626 
0.000651 
0.000677 
0.000703 
0.000730 
0.000758 
0.000786 
0.000816 
0.000846 
0.000876 
0.000908 
0.000940 
0.000973 
0.001007 
0.001041 
0.001077 
0.001113 
0.001149 
0.001187 
0.001225 
0.001264 
0.001304 
0.001344 
0.001385 
0.001427 
0.001469 
0.001512 
0.001556 
0.001600 
0.001645 
0.001691 
0.001737 
0.001784 
0.001832 
0.001880 
0.001929 
0.001978 
0.002027 
0.002077 
0.002128 
0.002179 
0.002231 
0.002282 
0.002335 
0.002387 
0.002440 
0.002494 
0.002547 
0.002601 
0.002655 
0.002709 
0.002764 
0.002818 
0.002873 
0.002928 
0.002983 
0.003038 
0.003093 
0.003148 
0.003203 
0.003258 
0.003313 
0.003368 
0.003422 
0.003477 
0.003531 
0.003585 
0.003639 
0.003692 
0.003746 
0.003799 
0.003851 
0.003903 
0.003955 
0.004006 
0.004057 
0.004108 
0.004157 
0.004207 
0.004256 
0.004304 
0.004351 
0.004398 
0.004445 
0.004490 
0.004535 
0.004579 
0.004623 
0.004666 
0.004707 
0.004749 
0.004789 
0.004828 
0.004867 
0.004905 
0.004942 
0.004978 
0.005013 
0.005047 
0.005080 
0.005112 
0.005144 
0.005174 
0.005203 
0.005231 
0.005258 
0.005284 
0.005310 
0.005334 
0.005356 
0.005378 
0.005399 
0.005419 
0.005437 
0.005455 
0.005471 
0.005486 
0.005500 
0.005513 
0.005525 
0.005535 
0.005544 
0.005553 
0.005560 
0.005566 
0.005570 
0.005574 
0.005576 
0.005577 
0.000000 
0.000000 
0.000000 
0.000000 
0.000000 
0.000000 
0.000000 
0.000000 
0.000000 
0.000000 
0.000000 
0.000000 
0.000000 
0.000000 
0.000000 
0.000000 
0.000000 
0.000000 
0.000000 
0.000000 
0.000000 
0.000000 
0.000000 
0.000000 
0.000000 
0.000000 
0.000000 
0.000000 
0.000000 
0.000000 
0.000000 
0.000000 
0.000000 
0.000000 
0.000000 
0.000000 
0.000000 
0.000000 
0.000000 
0.000000 
0.000000 
0.000000 
0.000000 
0.000000 
0.000000 
0.000000 
0.000000 
0.000000 
0.000000 
0.000000 
0.000000 
0.000000 
0.000000 
0.000000 
0.000000 
0.000000 
0.000001 
0.000001 
0.000001 
0.000001 
0.000001 
0.000001 
0.000001 
0.000001 
0.000001 
0.000001 
0.000001 
0.000001 
0.000001 
0.000002 
0.000002 
0.000002 
0.000002 
0.000002 
0.000002 
0.000003 
0.000003 
0.000003 
0.000003 
0.000003 
0.000004 
0.000004 
0.000004 
0.000005 
0.000005 
0.000005 
0.000006 
0.000006 
0.000007 
0.000007 
0.000008 
0.000008 
0.000009 
0.000010 
0.000010 
0.000011 
0.000012 
0.000013 
0.000014 
0.000015 
0.000016 
0.000017 
0.000018 
0.000020 
0.000021 
0.000022 
0.000024 
0.000026 
0.000027 
0.000029 
0.000031 
0.000033 
0.000035 
0.000038 
0.000040 
0.000043 
0.000046 
0.000049 
0.000052 
0.000055 
0.000058 
0.000062 
0.000066 
0.000070 
0.000074 
0.000079 
0.000084 
0.000089 
0.000094 
0.000099 
0.000105 
0.000111 
0.000118 
0.000125 
0.000132 
0.000139 
0.000147 
0.000155 
0.000164 
0.000173 
0.000182 
0.000192 
0.000202 
0.000213 
0.000224 
0.000236 
0.000248 
0.000260 
0.000274 
0.000287 
0.000302 
0.000317 
0.000332 
0.000348 
0.000365 
0.000382 
0.000401 
0.000419 
0.000439 
0.000459 
0.000480 
0.000501 
0.000524 
0.000547 
0.000570 
0.000595 
0.000621 
0.000647 
0.000674 
0.000702 
0.000731 
0.000760 
0.000791 
0.000822 
0.000855 
0.000888 
0.000922 
0.000957 
0.000993 
0.001030 
0.001067 
0.001106 
0.001146 
0.001186 
0.001228 
0.001270 
0.001314 
0.001358 
0.001403 
0.001449 
0.001496 
0.001544 
0.001593 
0.001643 
0.001694 
0.001745 
0.001798 
0.001851 
0.001905 
0.001960 
0.002016 
0.002072 
0.002129 
0.002187 
0.002246 
0.002306 
0.002366 
0.002427 
0.002488 
0.002551 
0.002613 
0.002677 
0.002741 
0.002805 
0.002870 
0.002935 
0.003001 
0.003068 
0.003134 
0.003201 
0.003268 
0.003336 
0.003404 
0.003472 
0.003540 
0.003609 
0.003677 
0.003746 
0.003815 
0.003883 
0.003952 
0.004021 
0.004089 
0.004158 
0.004226 
0.004294 
0.004362 
0.004430 
0.004497 
0.004564 
0.004631 
0.004697 
0.004763 
0.004829 
0.004894 
0.004958 
0.005022 
0.005085 
0.005148 
0.005210 
0.005271 
0.005332 
0.005392 
0.005451 
0.005510 
0.005567 
0.005624 
0.005680 
0.005735 
0.005789 
0.005842 
0.005894 
0.005945 
0.005996 
0.006045 
0.006093 
0.006140 
0.006186 
0.006230 
0.006274 
0.006316 
0.006357 
0.006397 
0.006436 
0.006474 
0.006510 
0.006545 
0.006579 
0.006611 
0.006642 
0.006672 
0.006701 
0.006728 
0.006753 
0.006778 
0.006801 
0.006822 
0.006843 
0.006861 
0.006879 
0.006895 
0.006909 
0.006922 
0.006934 
0.006944 
0.006953 
0.006960 
0.006966 
0.006970 
0.006973 
0.006975 
0.000000 
0.000000 
0.000000 
0.000000 
0.000000 
0.000000 
0.000000 
0.000000 
0.000000 
0.000000 
0.000000 
0.000000 
0.000000 
0.000000 
0.000000 
0.000000 
0.000000 
0.000000 
0.000000 
0.000000 
0.000000 
0.000000 
0.000000 
0.000000 
0.000000 
0.000000 
0.000000 
0.000000 
0.000000 
0.000000 
0.000000 
0.000000 
0.000000 
0.000000 
0.000000 
0.000000 
0.000000 
0.000000 
0.000000 
0.000000 
0.000000 
0.000000 
0.000000 
0.000000 
0.000000 
0.000000 
0.000000 
0.000000 
0.000000 
0.000000 
0.000000 
0.000000 
0.000000 
0.000000 
0.000001 
0.000001 
0.000001 
0.000001 
0.000001 
0.000001 
0.000001 
0.000001 
0.000001 
0.000001 
0.000001 
0.000001 
0.000001 
0.000002 
0.000002 
0.000002 
0.000002 
0.000002 
0.000002 
0.000003 
0.000003 
0.000003 
0.000003 
0.000004 
0.000004 
0.000004 
0.000005 
0.000005 
0.000005 
0.000006 
0.000006 
0.000007 
0.000007 
0.000008 
0.000008 
0.000009 
0.000010 
0.000010 
0.000011 
0.000012 
0.000013 
0.000014 
0.000015 
0.000016 
0.000017 
0.000018 
0.000019 
0.000021 
0.000022 
0.000024 
0.000026 
0.000027 
0.000029 
0.000031 
0.000033 
0.000036 
0.000038 
0.000040 
0.000043 
0.000046 
0.000049 
0.000052 
0.000056 
0.000059 
0.000063 
0.000067 
0.000071 
0.000076 
0.000080 
0.000085 
0.000091 
0.000096 
0.000102 
0.000108 
0.000114 
0.000121 
0.000128 
0.000136 
0.000144 
0.000152 
0.000161 
0.000170 
0.000179 
0.000189 
0.000200 
0.000210 
0.000222 
0.000234 
0.000246 
0.000259 
0.000273 
0.000287 
0.000302 
0.000317 
0.000333 
0.000350 
0.000368 
0.000386 
0.000405 
0.000424 
0.000444 
0.000466 
0.000488 
0.000510 
0.000534 
0.000558 
0.000584 
0.000610 
0.000637 
0.000665 
0.000694 
0.000724 
0.000755 
0.000786 
0.000819 
0.000853 
0.000888 
0.000924 
0.000961 
0.000999 
0.001038 
0.001078 
0.001120 
0.001162 
0.001206 
0.001250 
0.001296 
0.001343 
0.001391 
0.001440 
0.001490 
0.001541 
0.001594 
0.001647 
0.001702 
0.001757 
0.001814 
0.001872 
0.001931 
0.001991 
0.002052 
0.002115 
0.002178 
0.002242 
0.002307 
0.002374 
0.002441 
0.002509 
0.002578 
0.002648 
0.002719 
0.002790 
0.002863 
0.002936 
0.003010 
0.003085 
0.003160 
0.003237 
0.003314 
0.003391 
0.003469 
0.003548 
0.003627 
0.003706 
0.003786 
0.003867 
0.003948 
0.004029 
0.004110 
0.004192 
0.004274 
0.004356 
0.004438 
0.004520 
0.004603 
0.004685 
0.004767 
0.004849 
0.004932 
0.005014 
0.005095 
0.005177 
0.005258 
0.005339 
0.005420 
0.005500 
0.005580 
0.005659 
0.005738 
0.005816 
0.005894 
0.005971 
0.006047 
0.006123 
0.006198 
0.006272 
0.006345 
0.006418 
0.006489 
0.006560 
0.006630 
0.006698 
0.006766 
0.006833 
0.006898 
0.006963 
0.007026 
0.007089 
0.007150 
0.007209 
0.007268 
0.007325 
0.007381 
0.007436 
0.007489 
0.007541 
0.007591 
0.007640 
0.007688 
0.007734 
0.007779 
0.007822 
0.007864 
0.007904 
0.007943 
0.007980 
0.008015 
0.008049 
0.008081 
0.008112 
0.008141 
0.008168 
0.008194 
0.008218 
0.008240 
0.008261 
0.008280 
0.008297 
0.008313 
0.008327 
0.008339 
0.008349 
0.008358 
0.008365 
0.008370 
0.008374 
0.008375 
0.000000 
0.000000 
0.000000 
0.000000 
0.000000 
0.000000 
0.000000 
0.000000 
0.000000 
0.000000 
0.000000 
0.000000 
0.000000 
0.000000 
0.000000 
0.000000 
0.000000 
0.000000 
0.000000 
0.000000 
0.000000 
0.000000 
0.000000 
0.000000 
0.000000 
0.000000 
0.000000 
0.000000 
0.000000 
0.000000 
0.000000 
0.000000 
0.000000 
0.000000 
0.000000 
0.000000 
0.000000 
0.000000 
0.000000 
0.000000 
0.000000 
0.000000 
0.000000 
0.000000 
0.000000 
0.000000 
0.000000 
0.000000 
0.000000 
0.000000 
0.000000 
0.000000 
0.000001 
0.000001 
0.000001 
0.000001 
0.000001 
0.000001 
0.000001 
0.000001 
0.000001 
0.000001 
0.000001 
0.000001 
0.000001 
0.000002 
0.000002 
0.000002 
0.000002 
0.000002 
0.000002 
0.000003 
0.000003 
0.000003 
0.000003 
0.000004 
0.000004 
0.000004 
0.000005 
0.000005 
0.000005 
0.000006 
0.000006 
0.000007 
0.000007 
0.000008 
0.000008 
0.000009 
0.000010 
0.000011 
0.000011 
0.000012 
0.000013 
0.000014 
0.000015 
0.000016 
0.000017 
0.000019 
0.000020 
0.000022 
0.000023 
0.000025 
0.000027 
0.000028 
0.000030 
0.000032 
0.000035 
0.000037 
0.000040 
0.000042 
0.000045 
0.000048 
0.000051 
0.000055 
0.000058 
0.000062 
0.000066 
0.000070 
0.000075 
0.000080 
0.000085 
0.000090 
0.000096 
0.000102 
0.000108 
0.000114 
0.000121 
0.000128 
0.000136 
0.000144 
0.000153 
0.000161 
0.000171 
0.000181 
0.000191 
0.000202 
0.000213 
0.000225 
0.000237 
0.000250 
0.000264 
0.000278 
0.000292 
0.000308 
0.000324 
0.000341 
0.000358 
0.000377 
0.000396 
0.000416 
0.000436 
0.000458 
0.000480 
0.000503 
0.000527 
0.000552 
0.000578 
0.000605 
0.000633 
0.000662 
0.000692 
0.000723 
0.000755 
0.000788 
0.000822 
0.000858 
0.000894 
0.000932 
0.000971 
0.001011 
0.001052 
0.001094 
0.001138 
0.001183 
0.001229 
0.001276 
0.001325 
0.001375 
0.001426 
0.001479 
0.001533 
0.001588 
0.001644 
0.001702 
0.001761 
0.001821 
0.001883 
0.001946 
0.002010 
0.002076 
0.002143 
0.002211 
0.002280 
0.002351 
0.002422 
0.002495 
0.002570 
0.002645 
0.002722 
0.002799 
0.002878 
0.002958 
0.003039 
0.003121 
0.003204 
0.003288 
0.003373 
0.003458 
0.003545 
0.003633 
0.003721 
0.003810 
0.003900 
0.003990 
0.004082 
0.004174 
0.004266 
0.004359 
0.004452 
0.004546 
0.004641 
0.004735 
0.004830 
0.004926 
0.005021 
0.005117 
0.005212 
0.005308 
0.005404 
0.005500 
0.005596 
0.005692 
0.005787 
0.005883 
0.005978 
0.006073 
0.006168 
0.006262 
0.006355 
0.006449 
0.006541 
0.006634 
0.006725 
0.006816 
0.006906 
0.006996 
0.007084 
0.007172 
0.007259 
0.007345 
0.007430 
0.007514 
0.007597 
0.007679 
0.007760 
0.007840 
0.007918 
0.007996 
0.008072 
0.008146 
0.008220 
0.008292 
0.008363 
0.008432 
0.008500 
0.008566 
0.008631 
0.008694 
0.008755 
0.008815 
0.008874 
0.008931 
0.008986 
0.009039 
0.009091 
0.009141 
0.009189 
0.009236 
0.009280 
0.009323 
0.009364 
0.009403 
0.009441 
0.009476 
0.009509 
0.009541 
0.009571 
0.009599 
0.009624 
0.009648 
0.009670 
0.009690 
0.009708 
0.009724 
0.009738 
0.009750 
0.009760 
0.009768 
0.009774 
0.009778 
0.009780 
0.000000 
0.000000 
0.000000 
0.000000 
0.000000 
0.000000 
0.000000 
0.000000 
0.000000 
0.000000 
0.000000 
0.000000 
0.000000 
0.000000 
0.000000 
0.000000 
0.000000 
0.000000 
0.000000 
0.000000 
0.000000 
0.000000 
0.000000 
0.000000 
0.000000 
0.000000 
0.000000 
0.000000 
0.000000 
0.000000 
0.000000 
0.000000 
0.000000 
0.000000 
0.000000 
0.000000 
0.000000 
0.000000 
0.000000 
0.000000 
0.000000 
0.000000 
0.000000 
0.000000 
0.000000 
0.000000 
0.000000 
0.000000 
0.000000 
0.000000 
0.000001 
0.000001 
0.000001 
0.000001 
0.000001 
0.000001 
0.000001 
0.000001 
0.000001 
0.000001 
0.000001 
0.000001 
0.000001 
0.000002 
0.000002 
0.000002 
0.000002 
0.000002 
0.000002 
0.000003 
0.000003 
0.000003 
0.000003 
0.000004 
0.000004 
0.000004 
0.000005 
0.000005 
0.000005 
0.000006 
0.000006 
0.000007 
0.000007 
0.000008 
0.000009 
0.000009 
0.000010 
0.000011 
0.000011 
0.000012 
0.000013 
0.000014 
0.000015 
0.000017 
0.000018 
0.000019 
0.000020 
0.000022 
0.000024 
0.000025 
0.000027 
0.000029 
0.000031 
0.000033 
0.000036 
0.000038 
0.000041 
0.000043 
0.000046 
0.000050 
0.000053 
0.000056 
0.000060 
0.000064 
0.000068 
0.000073 
0.000077 
0.000082 
0.000088 
0.000093 
0.000099 
0.000105 
0.000112 
0.000119 
0.000126 
0.000134 
0.000142 
0.000150 
0.000159 
0.000168 
0.000178 
0.000189 
0.000199 
0.000211 
0.000223 
0.000235 
0.000249 
0.000262 
0.000277 
0.000292 
0.000308 
0.000324 
0.000341 
0.000359 
0.000378 
0.000398 
0.000418 
0.000439 
0.000461 
0.000484 
0.000509 
0.000533 
0.000559 
0.000586 
0.000614 
0.000643 
0.000674 
0.000705 
0.000737 
0.000771 
0.000806 
0.000842 
0.000879 
0.000917 
0.000957 
0.000998 
0.001040 
0.001084 
0.001129 
0.001175 
0.001223 
0.001272 
0.001322 
0.001374 
0.001428 
0.001483 
0.001539 
0.001597 
0.001656 
0.001717 
0.001779 
0.001843 
0.001908 
0.001974 
0.002043 
0.002112 
0.002183 
0.002256 
0.002330 
0.002406 
0.002483 
0.002561 
0.002641 
0.002722 
0.002805 
0.002889 
0.002975 
0.003061 
0.003149 
0.003239 
0.003329 
0.003421 
0.003514 
0.003608 
0.003704 
0.003800 
0.003897 
0.003996 
0.004095 
0.004196 
0.004297 
0.004399 
0.004502 
0.004606 
0.004710 
0.004815 
0.004921 
0.005028 
0.005135 
0.005242 
0.005350 
0.005458 
0.005567 
0.005675 
0.005785 
0.005894 
0.006003 
0.006113 
0.006222 
0.006332 
0.006441 
0.006550 
0.006659 
0.006768 
0.006877 
0.006985 
0.007092 
0.007200 
0.007306 
0.007412 
0.007518 
0.007623 
0.007727 
0.007830 
0.007933 
0.008035 
0.008136 
0.008235 
0.008334 
0.008432 
0.008529 
0.008624 
0.008718 
0.008811 
0.008903 
0.008994 
0.009083 
0.009170 
0.009257 
0.009341 
0.009425 
0.009506 
0.009586 
0.009665 
0.009742 
0.009817 
0.009890 
0.009962 
0.010031 
0.010099 
0.010166 
0.010230 
0.010292 
0.010353 
0.010411 
0.010468 
0.010522 
0.010575 
0.010626 
0.010674 
0.010720 
0.010765 
0.010807 
0.010847 
0.010885 
0.010921 
0.010954 
0.010986 
0.011015 
0.011042 
0.011067 
0.011089 
0.011109 
0.011128 
0.011143 
0.011157 
0.011168 
0.011177 
0.011184 
0.011189 
0.011191 
0.000000 
0.000000 
0.000000 
0.000000 
0.000000 
0.000000 
0.000000 
0.000000 
0.000000 
0.000000 
0.000000 
0.000000 
0.000000 
0.000000 
0.000000 
0.000000 
0.000000 
0.000000 
0.000000 
0.000000 
0.000000 
0.000000 
0.000000 
0.000000 
0.000000 
0.000000 