# vtk DataFile Version 3.0
results.vtk
ASCII
DATASET RECTILINEAR_GRID
DIMENSIONS 301 301 1
X_COORDINATES 301 double
0.000000 0.003333 0.006667 0.010000 0.013333 0.016667 0.020000 0.023333 0.026667 0.030000 0.033333 0.036667 0.040000 0.043333 0.046667 0.050000 0.053333 0.056667 0.060000 0.063333 0.066667 0.070000 0.073333 0.076667 0.080000 0.083333 0.086667 0.090000 0.093333 0.096667 0.100000 0.103333 0.106667 0.110000 0.113333 0.116667 0.120000 0.123333 0.126667 0.130000 0.133333 0.136667 0.140000 0.143333 0.146667 0.150000 0.153333 0.156667 0.160000 0.163333 0.166667 0.170000 0.173333 0.176667 0.180000 0.183333 0.186667 0.190000 0.193333 0.196667 0.200000 0.203333 0.206667 0.210000 0.213333 0.216667 0.220000 0.223333 0.226667 0.230000 0.233333 0.236667 0.240000 0.243333 0.246667 0.250000 0.253333 0.256667 0.260000 0.263333 0.266667 0.270000 0.273333 0.276667 0.280000 0.283333 0.286667 0.290000 0.293333 0.296667 0.300000 0.303333 0.306667 0.310000 0.313333 0.316667 0.320000 0.323333 0.326667 0.330000 0.333333 0.336667 0.340000 0.343333 0.346667 0.350000 0.353333 0.356667 0.360000 0.363333 0.366667 0.370000 0.373333 0.376667 0.380000 0.383333 0.386667 0.390000 0.393333 0.396667 0.400000 0.403333 0.406667 0.410000 0.413333 0.416667 0.420000 0.423333 0.426667 0.430000 0.433333 0.436667 0.440000 0.443333 0.446667 0.450000 0.453333 0.456667 0.460000 0.463333 0.466667 0.470000 0.473333 0.476667 0.480000 0.483333 0.486667 0.490000 0.493333 0.496667 0.500000 0.503333 0.506667 0.510000 0.513333 0.516667 0.520000 0.523333 0.526667 0.530000 0.533333 0.536667 0.540000 0.543333 0.546667 0.550000 0.553333 0.556667 0.560000 0.563333 0.566667 0.570000 0.573333 0.576667 0.580000 0.583333 0.586667 0.590000 0.593333 0.596667 0.600000 0.603333 0.606667 0.610000 0.613333 0.616667 0.620000 0.623333 0.626667 0.630000 0.633333 0.636667 0.640000 0.643333 0.646667 0.650000 0.653333 0.656667 0.660000 0.663333 0.666667 0.670000 0.673333 0.676667 0.680000 0.683333 0.686667 0.690000 0.693333 0.696667 0.700000 0.703333 0.706667 0.710000 0.713333 0.716667 0.720000 0.723333 0.726667 0.730000 0.733333 0.736667 0.740000 0.743333 0.746667 0.750000 0.753333 0.756667 0.760000 0.763333 0.766667 0.770000 0.773333 0.776667 0.780000 0.783333 0.786667 0.790000 0.793333 0.796667 0.800000 0.803333 0.806667 0.810000 0.813333 0.816667 0.820000 0.823333 0.826667 0.830000 0.833333 0.836667 0.840000 0.843333 0.846667 0.850000 0.853333 0.856667 0.860000 0.863333 0.866667 0.870000 0.873333 0.876667 0.880000 0.883333 0.886667 0.890000 0.893333 0.896667 0.900000 0.903333 0.906667 0.910000 0.913333 0.916667 0.920000 0.923333 0.926667 0.930000 0.933333 0.936667 0.940000 0.943333 0.946667 0.950000 0.953333 0.956667 0.960000 0.963333 0.966667 0.970000 0.973333 0.976667 0.980000 0.983333 0.986667 0.990000 0.993333 0.996667 1.000000 
Y_COORDINATES 301 double
0.000000 0.003333 0.006667 0.010000 0.013333 0.016667 0.020000 0.023333 0.026667 0.030000 0.033333 0.036667 0.040000 0.043333 0.046667 0.050000 0.053333 0.056667 0.060000 0.063333 0.066667 0.070000 0.073333 0.076667 0.080000 0.083333 0.086667 0.090000 0.093333 0.096667 0.100000 0.103333 0.106667 0.110000 0.113333 0.116667 0.120000 0.123333 0.126667 0.130000 0.133333 0.136667 0.140000 0.143333 0.146667 0.150000 0.153333 0.156667 0.160000 0.163333 0.166667 0.170000 0.173333 0.176667 0.180000 0.183333 0.186667 0.190000 0.193333 0.196667 0.200000 0.203333 0.206667 0.210000 0.213333 0.216667 0.220000 0.223333 0.226667 0.230000 0.233333 0.236667 0.240000 0.243333 0.246667 0.250000 0.253333 0.256667 0.260000 0.263333 0.266667 0.270000 0.273333 0.276667 0.280000 0.283333 0.286667 0.290000 0.293333 0.296667 0.300000 0.303333 0.306667 0.310000 0.313333 0.316667 0.320000 0.323333 0.326667 0.330000 0.333333 0.336667 0.340000 0.343333 0.346667 0.350000 0.353333 0.356667 0.360000 0.363333 0.366667 0.370000 0.373333 0.376667 0.380000 0.383333 0.386667 0.390000 0.393333 0.396667 0.400000 0.403333 0.406667 0.410000 0.413333 0.416667 0.420000 0.423333 0.426667 0.430000 0.433333 0.436667 0.440000 0.443333 0.446667 0.450000 0.453333 0.456667 0.460000 0.463333 0.466667 0.470000 0.473333 0.476667 0.480000 0.483333 0.486667 0.490000 0.493333 0.496667 0.500000 0.503333 0.506667 0.510000 0.513333 0.516667 0.520000 0.523333 0.526667 0.530000 0.533333 0.536667 0.540000 0.543333 0.546667 0.550000 0.553333 0.556667 0.560000 0.563333 0.566667 0.570000 0.573333 0.576667 0.580000 0.583333 0.586667 0.590000 0.593333 0.596667 0.600000 0.603333 0.606667 0.610000 0.613333 0.616667 0.620000 0.623333 0.626667 0.630000 0.633333 0.636667 0.640000 0.643333 0.646667 0.650000 0.653333 0.656667 0.660000 0.663333 0.666667 0.670000 0.673333 0.676667 0.680000 0.683333 0.686667 0.690000 0.693333 0.696667 0.700000 0.703333 0.706667 0.710000 0.713333 0.716667 0.720000 0.723333 0.726667 0.730000 0.733333 0.736667 0.740000 0.743333 0.746667 0.750000 0.753333 0.756667 0.760000 0.763333 0.766667 0.770000 0.773333 0.776667 0.780000 0.783333 0.786667 0.790000 0.793333 0.796667 0.800000 0.803333 0.806667 0.810000 0.813333 0.816667 0.820000 0.823333 0.826667 0.830000 0.833333 0.836667 0.840000 0.843333 0.846667 0.850000 0.853333 0.856667 0.860000 0.863333 0.866667 0.870000 0.873333 0.876667 0.880000 0.883333 0.886667 0.890000 0.893333 0.896667 0.900000 0.903333 0.906667 0.910000 0.913333 0.916667 0.920000 0.923333 0.926667 0.930000 0.933333 0.936667 0.940000 0.943333 0.946667 0.950000 0.953333 0.956667 0.960000 0.963333 0.966667 0.970000 0.973333 0.976667 0.980000 0.983333 0.986667 0.990000 0.993333 0.996667 1.000000 
Z_COORDINATES 1 double
0
POINT_DATA 90601 
FIELD FieldData 1 
Concentração 1 90601 double 
0.000000 
0.000000 
0.000000 
0.000000 
0.000000 
0.000000 
0.000000 
0.000000 
0.000000 
0.000000 
0.000000 
0.000000 
0.000000 
0.000000 
0.000000 
0.000000 
0.000000 
0.000000 
0.000000 
0.000000 
0.000000 
0.000000 
0.000000 
0.000000 
0.000000 
0.000000 
0.000000 
0.000000 
0.000000 
0.000000 
0.000000 
0.000000 
0.000000 
0.000000 
0.000000 
0.000000 
0.000000 
0.000000 
0.000000 
0.000000 
0.000000 
0.000000 
0.000000 
0.000000 
0.000000 
0.000000 
0.000000 
0.000000 
0.000000 
0.000000 
0.000000 
0.000000 
0.000000 
0.000000 
0.000000 
0.000000 
0.000000 
0.000000 
0.000000 
0.000000 
0.000000 
0.000000 
0.000000 
0.000000 
0.000000 
0.000000 
0.000000 
0.000000 
0.000000 
0.000000 
0.000000 
0.000000 
0.000000 
0.000000 
0.000000 
0.000000 
0.000000 
0.000000 
0.000000 
0.000000 
0.000000 
0.000000 
0.000000 
0.000000 
0.000000 
0.000000 
0.000000 
0.000000 
0.000001 
0.000001 
0.000001 
0.000001 
0.000001 
0.000001 
0.000001 
0.000001 
0.000001 
0.000001 
0.000001 
0.000001 
0.000001 
0.000001 
0.000001 
0.000002 
0.000002 
0.000002 
0.000002 
0.000002 
0.000002 
0.000002 
0.000003 
0.000003 
0.000003 
0.000003 
0.000003 
0.000004 
0.000004 
0.000004 
0.000004 
0.000005 
0.000005 
0.000005 
0.000006 
0.000006 
0.000006 
0.000007 
0.000007 
0.000008 
0.000008 
0.000009 
0.000009 
0.000010 
0.000010 
0.000011 
0.000012 
0.000012 
0.000013 
0.000014 
0.000014 
0.000015 
0.000016 
0.000017 
0.000018 
0.000019 
0.000020 
0.000021 
0.000022 
0.000024 
0.000025 
0.000026 
0.000027 
0.000029 
0.000030 
0.000032 
0.000034 
0.000035 
0.000037 
0.000039 
0.000041 
0.000043 
0.000045 
0.000047 
0.000049 
0.000051 
0.000054 
0.000056 
0.000059 
0.000061 
0.000064 
0.000067 
0.000070 
0.000073 
0.000076 
0.000079 
0.000083 
0.000086 
0.000090 
0.000093 
0.000097 
0.000101 
0.000105 
0.000109 
0.000113 
0.000118 
0.000122 
0.000127 
0.000132 
0.000136 
0.000141 
0.000146 
0.000152 
0.000157 
0.000162 
0.000168 
0.000174 
0.000179 
0.000185 
0.000191 
0.000198 
0.000204 
0.000210 
0.000217 
0.000223 
0.000230 
0.000237 
0.000244 
0.000251 
0.000258 
0.000266 
0.000273 
0.000280 
0.000288 
0.000296 
0.000304 
0.000311 
0.000319 
0.000328 
0.000336 
0.000344 
0.000352 
0.000361 
0.000369 
0.000377 
0.000386 
0.000395 
0.000403 
0.000412 
0.000421 
0.000430 
0.000438 
0.000447 
0.000456 
0.000465 
0.000474 
0.000483 
0.000492 
0.000501 
0.000510 
0.000519 
0.000528 
0.000537 
0.000546 
0.000554 
0.000563 
0.000572 
0.000581 
0.000590 
0.000598 
0.000607 
0.000615 
0.000624 
0.000632 
0.000641 
0.000649 
0.000657 
0.000665 
0.000673 
0.000681 
0.000688 
0.000696 
0.000704 
0.000711 
0.000718 
0.000725 
0.000732 
0.000739 
0.000746 
0.000753 
0.000759 
0.000765 
0.000772 
0.000777 
0.000783 
0.000789 
0.000794 
0.000800 
0.000805 
0.000810 
0.000814 
0.000819 
0.000823 
0.000828 
0.000832 
0.000835 
0.000839 
0.000842 
0.000846 
0.000849 
0.000851 
0.000854 
0.000856 
0.000858 
0.000860 
0.000862 
0.000864 
0.000865 
0.000866 
0.000867 
0.000867 
0.000868 
0.000868 
0.000000 
0.000000 
0.000000 
0.000000 
0.000000 
0.000000 
0.000000 
0.000000 
0.000000 
0.000000 
0.000000 
0.000000 
0.000000 
0.000000 
0.000000 
0.000000 
0.000000 
0.000000 
0.000000 
0.000000 
0.000000 
0.000000 
0.000000 
0.000000 
0.000000 
0.000000 
0.000000 
0.000000 
0.000000 
0.000000 
0.000000 
0.000000 
0.000000 
0.000000 
0.000000 
0.000000 
0.000000 
0.000000 
0.000000 
0.000000 
0.000000 
0.000000 
0.000000 
0.000000 
0.000000 
0.000000 
0.000000 
0.000000 
0.000000 
0.000000 
0.000000 
0.000000 
0.000000 
0.000000 
0.000000 
0.000000 
0.000000 
0.000000 
0.000000 
0.000000 
0.000000 
0.000000 
0.000000 
0.000000 
0.000000 
0.000000 
0.000000 
0.000000 
0.000000 
0.000000 
0.000000 
0.000000 
0.000000 
0.000000 
0.000000 
0.000000 
0.000000 
0.000000 
0.000000 
0.000001 
0.000001 
0.000001 
0.000001 
0.000001 
0.000001 
0.000001 
0.000001 
0.000001 
0.000001 
0.000001 
0.000001 
0.000001 
0.000001 
0.000002 
0.000002 
0.000002 
0.000002 
0.000002 
0.000002 
0.000002 
0.000003 
0.000003 
0.000003 
0.000003 
0.000003 
0.000004 
0.000004 
0.000004 
0.000005 
0.000005 
0.000005 
0.000006 
0.000006 
0.000006 
0.000007 
0.000007 
0.000008 
0.000008 
0.000009 
0.000009 
0.000010 
0.000011 
0.000011 
0.000012 
0.000013 
0.000014 
0.000014 
0.000015 
0.000016 
0.000017 
0.000018 
0.000019 
0.000021 
0.000022 
0.000023 
0.000025 
0.000026 
0.000027 
0.000029 
0.000031 
0.000032 
0.000034 
0.000036 
0.000038 
0.000040 
0.000043 
0.000045 
0.000047 
0.000050 
0.000052 
0.000055 
0.000058 
0.000061 
0.000064 
0.000067 
0.000071 
0.000074 
0.000078 
0.000082 
0.000086 
0.000090 
0.000094 
0.000099 
0.000103 
0.000108 
0.000113 
0.000118 
0.000123 
0.000129 
0.000135 
0.000141 
0.000147 
0.000153 
0.000160 
0.000166 
0.000173 
0.000180 
0.000188 
0.000195 
0.000203 
0.000211 
0.000219 
0.000228 
0.000237 
0.000246 
0.000255 
0.000264 
0.000274 
0.000284 
0.000294 
0.000304 
0.000315 
0.000326 
0.000337 
0.000349 
0.000360 
0.000372 
0.000384 
0.000397 
0.000409 
0.000422 
0.000435 
0.000448 
0.000462 
0.000476 
0.000490 
0.000504 
0.000518 
0.000533 
0.000548 
0.000563 
0.000578 
0.000593 
0.000609 
0.000625 
0.000641 
0.000657 
0.000673 
0.000690 
0.000706 
0.000723 
0.000740 
0.000757 
0.000774 
0.000791 
0.000809 
0.000826 
0.000844 
0.000861 
0.000879 
0.000897 
0.000915 
0.000933 
0.000950 
0.000968 
0.000986 
0.001004 
0.001022 
0.001040 
0.001058 
0.001076 
0.001094 
0.001111 
0.001129 
0.001147 
0.001164 
0.001182 
0.001199 
0.001216 
0.001233 
0.001250 
0.001267 
0.001283 
0.001300 
0.001316 
0.001332 
0.001348 
0.001364 
0.001379 
0.001395 
0.001410 
0.001424 
0.001439 
0.001453 
0.001467 
0.001481 
0.001495 
0.001508 
0.001521 
0.001533 
0.001545 
0.001557 
0.001569 
0.001580 
0.001591 
0.001602 
0.001612 
0.001622 
0.001631 
0.001640 
0.001649 
0.001657 
0.001665 
0.001673 
0.001680 
0.001687 
0.001693 
0.001699 
0.001705 
0.001710 
0.001715 
0.001719 
0.001723 
0.001726 
0.001729 
0.001732 
0.001734 
0.001736 
0.001737 
0.001738 
0.001738 
0.000000 
0.000000 
0.000000 
0.000000 
0.000000 
0.000000 
0.000000 
0.000000 
0.000000 
0.000000 
0.000000 
0.000000 
0.000000 
0.000000 
0.000000 
0.000000 
0.000000 
0.000000 
0.000000 
0.000000 
0.000000 
0.000000 
0.000000 
0.000000 
0.000000 
0.000000 
0.000000 
0.000000 
0.000000 
0.000000 
0.000000 
0.000000 
0.000000 
0.000000 
0.000000 
0.000000 
0.000000 
0.000000 
0.000000 
0.000000 
0.000000 
0.000000 
0.000000 
0.000000 
0.000000 
0.000000 
0.000000 
0.000000 
0.000000 
0.000000 
0.000000 
0.000000 
0.000000 
0.000000 
0.000000 
0.000000 
0.000000 
0.000000 
0.000000 
0.000000 
0.000000 
0.000000 
0.000000 
0.000000 
0.000000 
0.000000 
0.000000 
0.000000 
0.000000 
0.000000 
0.000000 
0.000000 
0.000000 
0.000001 
0.000001 
0.000001 
0.000001 
0.000001 
0.000001 
0.000001 
0.000001 
0.000001 
0.000001 
0.000001 
0.000001 
0.000001 
0.000001 
0.000002 
0.000002 
0.000002 
0.000002 
0.000002 
0.000002 
0.000002 
0.000003 
0.000003 
0.000003 
0.000003 
0.000003 
0.000004 
0.000004 
0.000004 
0.000005 
0.000005 
0.000005 
0.000006 
0.000006 
0.000006 
0.000007 
0.000007 
0.000008 
0.000008 
0.000009 
0.000010 
0.000010 
0.000011 
0.000012 
0.000012 
0.000013 
0.000014 
0.000015 
0.000016 
0.000017 
0.000018 
0.000019 
0.000021 
0.000022 
0.000023 
0.000025 
0.000026 
0.000028 
0.000029 
0.000031 
0.000033 
0.000035 
0.000037 
0.000039 
0.000042 
0.000044 
0.000046 
0.000049 
0.000052 
0.000055 
0.000058 
0.000061 
0.000064 
0.000068 
0.000071 
0.000075 
0.000079 
0.000083 
0.000088 
0.000092 
0.000097 
0.000102 
0.000107 
0.000112 
0.000118 
0.000124 
0.000130 
0.000136 
0.000142 
0.000149 
0.000156 
0.000163 
0.000171 
0.000179 
0.000187 
0.000195 
0.000203 
0.000212 
0.000222 
0.000231 
0.000241 
0.000251 
0.000262 
0.000272 
0.000283 
0.000295 
0.000307 
0.000319 
0.000331 
0.000344 
0.000357 
0.000371 
0.000385 
0.000399 
0.000413 
0.000428 
0.000444 
0.000459 
0.000476 
0.000492 
0.000509 
0.000526 
0.000543 
0.000561 
0.000580 
0.000598 
0.000617 
0.000637 
0.000656 
0.000676 
0.000697 
0.000717 
0.000738 
0.000760 
0.000781 
0.000803 
0.000826 
0.000848 
0.000871 
0.000895 
0.000918 
0.000942 
0.000966 
0.000990 
0.001015 
0.001039 
0.001064 
0.001090 
0.001115 
0.001141 
0.001167 
0.001192 
0.001219 
0.001245 
0.001271 
0.001298 
0.001324 
0.001351 
0.001378 
0.001405 
0.001431 
0.001458 
0.001485 
0.001512 
0.001539 
0.001566 
0.001593 
0.001620 
0.001646 
0.001673 
0.001700 
0.001726 
0.001752 
0.001778 
0.001804 
0.001830 
0.001856 
0.001881 
0.001906 
0.001931 
0.001956 
0.001980 
0.002005 
0.002028 
0.002052 
0.002075 
0.002098 
0.002121 
0.002143 
0.002165 
0.002186 
0.002207 
0.002228 
0.002248 
0.002268 
0.002287 
0.002306 
0.002324 
0.002342 
0.002359 
0.002376 
0.002393 
0.002408 
0.002424 
0.002438 
0.002453 
0.002466 
0.002479 
0.002492 
0.002504 
0.002515 
0.002526 
0.002536 
0.002546 
0.002555 
0.002563 
0.002571 
0.002578 
0.002584 
0.002590 
0.002595 
0.002600 
0.002604 
0.002607 
0.002610 
0.002611 
0.002613 
0.002613 
0.000000 
0.000000 
0.000000 
0.000000 
0.000000 
0.000000 
0.000000 
0.000000 
0.000000 
0.000000 
0.000000 
0.000000 
0.000000 
0.000000 
0.000000 
0.000000 
0.000000 
0.000000 
0.000000 
0.000000 
0.000000 
0.000000 
0.000000 
0.000000 
0.000000 
0.000000 
0.000000 
0.000000 
0.000000 
0.000000 
0.000000 
0.000000 
0.000000 
0.000000 
0.000000 
0.000000 
0.000000 
0.000000 
0.000000 
0.000000 
0.000000 
0.000000 
0.000000 
0.000000 
0.000000 
0.000000 
0.000000 
0.000000 
0.000000 
0.000000 
0.000000 
0.000000 
0.000000 
0.000000 
0.000000 
0.000000 
0.000000 
0.000000 
0.000000 
0.000000 
0.000000 
0.000000 
0.000000 
0.000000 
0.000000 
0.000000 
0.000000 
0.000000 
0.000000 
0.000000 
0.000001 
0.000001 
0.000001 
0.000001 
0.000001 
0.000001 
0.000001 
0.000001 
0.000001 
0.000001 
0.000001 
0.000001 
0.000001 
0.000002 
0.000002 
0.000002 
0.000002 
0.000002 
0.000002 
0.000002 
0.000003 
0.000003 
0.000003 
0.000003 
0.000003 
0.000004 
0.000004 
0.000004 
0.000005 
0.000005 
0.000005 
0.000006 
0.000006 
0.000007 
0.000007 
0.000008 
0.000008 
0.000009 
0.000009 
0.000010 
0.000011 
0.000011 
0.000012 
0.000013 
0.000014 
0.000015 
0.000016 
0.000017 
0.000018 
0.000019 
0.000020 
0.000022 
0.000023 
0.000025 
0.000026 
0.000028 
0.000029 
0.000031 
0.000033 
0.000035 
0.000037 
0.000040 
0.000042 
0.000045 
0.000047 
0.000050 
0.000053 
0.000056 
0.000059 
0.000063 
0.000066 
0.000070 
0.000074 
0.000078 
0.000082 
0.000087 
0.000091 
0.000096 
0.000101 
0.000107 
0.000112 
0.000118 
0.000124 
0.000131 
0.000137 
0.000144 
0.000151 
0.000159 
0.000167 
0.000175 
0.000183 
0.000192 
0.000201 
0.000210 
0.000220 
0.000230 
0.000240 
0.000251 
0.000262 
0.000274 
0.000286 
0.000298 
0.000311 
0.000324 
0.000338 
0.000352 
0.000367 
0.000381 
0.000397 
0.000413 
0.000429 
0.000446 
0.000463 
0.000481 
0.000499 
0.000517 
0.000537 
0.000556 
0.000576 
0.000597 
0.000618 
0.000639 
0.000662 
0.000684 
0.000707 
0.000731 
0.000755 
0.000779 
0.000804 
0.000830 
0.000855 
0.000882 
0.000909 
0.000936 
0.000964 
0.000992 
0.001021 
0.001050 
0.001079 
0.001109 
0.001139 
0.001170 
0.001201 
0.001233 
0.001265 
0.001297 
0.001329 
0.001362 
0.001395 
0.001429 
0.001462 
0.001496 
0.001531 
0.001565 
0.001600 
0.001635 
0.001670 
0.001705 
0.001741 
0.001776 
0.001812 
0.001848 
0.001883 
0.001919 
0.001955 
0.001991 
0.002027 
0.002063 
0.002099 
0.002135 
0.002171 
0.002206 
0.002242 
0.002277 
0.002313 
0.002348 
0.002383 
0.002417 
0.002452 
0.002486 
0.002520 
0.002553 
0.002587 
0.002619 
0.002652 
0.002684 
0.002716 
0.002747 
0.002778 
0.002809 
0.002839 
0.002869 
0.002898 
0.002926 
0.002954 
0.002982 
0.003009 
0.003035 
0.003061 
0.003086 
0.003110 
0.003134 
0.003157 
0.003180 
0.003201 
0.003222 
0.003243 
0.003262 
0.003281 
0.003300 
0.003317 
0.003334 
0.003350 
0.003365 
0.003379 
0.003393 
0.003405 
0.003417 
0.003428 
0.003439 
0.003448 
0.003457 
0.003464 
0.003471 
0.003477 
0.003482 
0.003487 
0.003490 
0.003493 
0.003495 
0.003495 
0.000000 
0.000000 
0.000000 
0.000000 
0.000000 
0.000000 
0.000000 
0.000000 
0.000000 
0.000000 
0.000000 
0.000000 
0.000000 
0.000000 
0.000000 
0.000000 
0.000000 
0.000000 
0.000000 
0.000000 
0.000000 
0.000000 
0.000000 
0.000000 
0.000000 
0.000000 
0.000000 
0.000000 
0.000000 
0.000000 
0.000000 
0.000000 
0.000000 
0.000000 
0.000000 
0.000000 
0.000000 
0.000000 
0.000000 
0.000000 
0.000000 
0.000000 
0.000000 
0.000000 
0.000000 
0.000000 
0.000000 
0.000000 
0.000000 
0.000000 
0.000000 
0.000000 
0.000000 
0.000000 
0.000000 
0.000000 
0.000000 
0.000000 
0.000000 
0.000000 
0.000000 
0.000000 
0.000000 
0.000000 
0.000000 
0.000000 
0.000000 
0.000001 
0.000001 
0.000001 
0.000001 
0.000001 
0.000001 
0.000001 
0.000001 
0.000001 
0.000001 
0.000001 
0.000001 
0.000001 
0.000002 
0.000002 
0.000002 
0.000002 
0.000002 
0.000002 
0.000002 
0.000003 
0.000003 
0.000003 
0.000003 
0.000004 
0.000004 
0.000004 
0.000004 
0.000005 
0.000005 
0.000005 
0.000006 
0.000006 
0.000007 
0.000007 
0.000008 
0.000008 
0.000009 
0.000010 
0.000010 
0.000011 
0.000012 
0.000013 
0.000013 
0.000014 
0.000015 
0.000016 
0.000018 
0.000019 
0.000020 
0.000021 
0.000023 
0.000024 
0.000026 
0.000027 
0.000029 
0.000031 
0.000033 
0.000035 
0.000037 
0.000040 
0.000042 
0.000045 
0.000048 
0.000050 
0.000053 
0.000057 
0.000060 
0.000063 
0.000067 
0.000071 
0.000075 
0.000079 
0.000084 
0.000089 
0.000094 
0.000099 
0.000104 
0.000110 
0.000116 
0.000122 
0.000129 
0.000135 
0.000142 
0.000150 
0.000157 
0.000166 
0.000174 
0.000183 
0.000192 
0.000201 
0.000211 
0.000221 
0.000232 
0.000243 
0.000254 
0.000266 
0.000278 
0.000291 
0.000304 
0.000318 
0.000332 
0.000347 
0.000362 
0.000378 
0.000394 
0.000410 
0.000428 
0.000445 
0.000464 
0.000483 
0.000502 
0.000522 
0.000543 
0.000564 
0.000585 
0.000608 
0.000631 
0.000654 
0.000678 
0.000703 
0.000728 
0.000754 
0.000781 
0.000808 
0.000836 
0.000864 
0.000893 
0.000923 
0.000953 
0.000984 
0.001015 
0.001048 
0.001080 
0.001113 
0.001147 
0.001182 
0.001216 
0.001252 
0.001288 
0.001325 
0.001362 
0.001399 
0.001437 
0.001476 
0.001515 
0.001555 
0.001595 
0.001635 
0.001676 
0.001717 
0.001759 
0.001801 
0.001843 
0.001886 
0.001929 
0.001972 
0.002016 
0.002060 
0.002104 
0.002148 
0.002192 
0.002237 
0.002282 
0.002327 
0.002371 
0.002416 
0.002462 
0.002507 
0.002552 
0.002597 
0.002642 
0.002687 
0.002731 
0.002776 
0.002821 
0.002865 
0.002909 
0.002953 
0.002997 
0.003040 
0.003083 
0.003126 
0.003168 
0.003210 
0.003252 
0.003293 
0.003334 
0.003374 
0.003414 
0.003453 
0.003492 
0.003530 
0.003567 
0.003604 
0.003641 
0.003676 
0.003711 
0.003746 
0.003779 
0.003812 
0.003844 
0.003875 
0.003906 
0.003936 
0.003965 
0.003993 
0.004020 
0.004046 
0.004072 
0.004096 
0.004120 
0.004143 
0.004164 
0.004185 
0.004205 
0.004224 
0.004242 
0.004259 
0.004275 
0.004289 
0.004303 
0.004316 
0.004328 
0.004338 
0.004348 
0.004357 
0.004364 
0.004371 
0.004376 
0.004380 
0.004384 
0.004386 
0.004387 
0.000000 
0.000000 
0.000000 
0.000000 
0.000000 
0.000000 
0.000000 
0.000000 
0.000000 
0.000000 
0.000000 
0.000000 
0.000000 
0.000000 
0.000000 
0.000000 
0.000000 
0.000000 
0.000000 
0.000000 
0.000000 
0.000000 
0.000000 
0.000000 
0.000000 
0.000000 
0.000000 
0.000000 
0.000000 
0.000000 
0.000000 
0.000000 
0.000000 
0.000000 
0.000000 
0.000000 
0.000000 
0.000000 
0.000000 
0.000000 
0.000000 
0.000000 
0.000000 
0.000000 
0.000000 
0.000000 
0.000000 
0.000000 
0.000000 
0.000000 
0.000000 
0.000000 
0.000000 
0.000000 
0.000000 
0.000000 
0.000000 
0.000000 
0.000000 
0.000000 
0.000000 
0.000000 
0.000000 
0.000000 
0.000001 
0.000001 
0.000001 
0.000001 
0.000001 
0.000001 
0.000001 
0.000001 
0.000001 
0.000001 
0.000001 
0.000001 
0.000001 
0.000001 
0.000002 
0.000002 
0.000002 
0.000002 
0.000002 
0.000002 
0.000003 
0.000003 
0.000003 
0.000003 
0.000003 
0.000004 
0.000004 
0.000004 
0.000005 
0.000005 
0.000005 
0.000006 
0.000006 
0.000007 
0.000007 
0.000008 
0.000008 
0.000009 
0.000010 
0.000010 
0.000011 
0.000012 
0.000013 
0.000013 
0.000014 
0.000015 
0.000016 
0.000018 
0.000019 
0.000020 
0.000021 
0.000023 
0.000024 
0.000026 
0.000028 
0.000030 
0.000032 
0.000034 
0.000036 
0.000038 
0.000040 
0.000043 
0.000046 
0.000049 
0.000052 
0.000055 
0.000058 
0.000062 
0.000065 
0.000069 
0.000073 
0.000078 
0.000082 
0.000087 
0.000092 
0.000097 
0.000102 
0.000108 
0.000114 
0.000121 
0.000127 
0.000134 
0.000141 
0.000149 
0.000157 
0.000165 
0.000174 
0.000183 
0.000192 
0.000202 
0.000212 
0.000223 
0.000234 
0.000245 
0.000257 
0.000270 
0.000283 
0.000296 
0.000310 
0.000324 
0.000339 
0.000355 
0.000371 
0.000388 
0.000405 
0.000423 
0.000441 
0.000460 
0.000480 
0.000500 
0.000521 
0.000542 
0.000565 
0.000588 
0.000611 
0.000636 
0.000660 
0.000686 
0.000713 
0.000740 
0.000767 
0.000796 
0.000825 
0.000855 
0.000886 
0.000917 
0.000950 
0.000983 
0.001016 
0.001051 
0.001086 
0.001122 
0.001158 
0.001196 
0.001234 
0.001273 
0.001312 
0.001352 
0.001393 
0.001435 
0.001477 
0.001520 
0.001564 
0.001608 
0.001653 
0.001698 
0.001744 
0.001791 
0.001838 
0.001886 
0.001934 
0.001983 
0.002033 
0.002082 
0.002133 
0.002183 
0.002234 
0.002286 
0.002338 
0.002390 
0.002443 
0.002495 
0.002548 
0.002602 
0.002655 
0.002709 
0.002763 
0.002817 
0.002871 
0.002925 
0.002979 
0.003034 
0.003088 
0.003142 
0.003196 
0.003250 
0.003304 
0.003358 
0.003411 
0.003465 
0.003518 
0.003571 
0.003623 
0.003675 
0.003727 
0.003778 
0.003829 
0.003880 
0.003930 
0.003979 
0.004028 
0.004076 
0.004124 
0.004171 
0.004218 
0.004263 
0.004308 
0.004353 
0.004396 
0.004439 
0.004481 
0.004522 
0.004562 
0.004602 
0.004640 
0.004678 
0.004714 
0.004750 
0.004785 
0.004818 
0.004851 
0.004883 
0.004913 
0.004942 
0.004971 
0.004998 
0.005024 
0.005049 
0.005073 
0.005095 
0.005117 
0.005137 
0.005156 
0.005174 
0.005190 
0.005206 
0.005220 
0.005232 
0.005244 
0.005254 
0.005263 
0.005271 
0.005278 
0.005283 
0.005287 
0.005289 
0.005290 
0.000000 
0.000000 
0.000000 
0.000000 
0.000000 
0.000000 
0.000000 
0.000000 
0.000000 
0.000000 
0.000000 
0.000000 
0.000000 
0.000000 
0.000000 
0.000000 
0.000000 
0.000000 
0.000000 
0.000000 
0.000000 
0.000000 
0.000000 
0.000000 
0.000000 
0.000000 
0.000000 
0.000000 
0.000000 
0.000000 
0.000000 
0.000000 
0.000000 
0.000000 
0.000000 
0.000000 
0.000000 
0.000000 
0.000000 
0.000000 
0.000000 
0.000000 
0.000000 
0.000000 
0.000000 
0.000000 
0.000000 
0.000000 
0.000000 
0.000000 
0.000000 
0.000000 
0.000000 
0.000000 
0.000000 
0.000000 
0.000000 
0.000000 
0.000000 
0.000000 
0.000000 
0.000000 
0.000001 
0.000001 
0.000001 
0.000001 
0.000001 
0.000001 
0.000001 
0.000001 
0.000001 
0.000001 
0.000001 
0.000001 
0.000001 
0.000001 
0.000002 
0.000002 
0.000002 
0.000002 
0.000002 
0.000002 
0.000003 
0.000003 
0.000003 
0.000003 
0.000004 
0.000004 
0.000004 
0.000004 
0.000005 
0.000005 
0.000006 
0.000006 
0.000006 
0.000007 
0.000007 
0.000008 
0.000009 
0.000009 
0.000010 
0.000011 
0.000011 
0.000012 
0.000013 
0.000014 
0.000015 
0.000016 
0.000017 
0.000018 
0.000020 
0.000021 
0.000022 
0.000024 
0.000026 
0.000027 
0.000029 
0.000031 
0.000033 
0.000035 
0.000038 
0.000040 
0.000043 
0.000045 
0.000048 
0.000051 
0.000054 
0.000058 
0.000061 
0.000065 
0.000069 
0.000073 
0.000078 
0.000082 
0.000087 
0.000092 
0.000098 
0.000103 
0.000109 
0.000115 
0.000122 
0.000129 
0.000136 
0.000144 
0.000151 
0.000160 
0.000168 
0.000177 
0.000187 
0.000196 
0.000207 
0.000217 
0.000229 
0.000240 
0.000252 
0.000265 
0.000278 
0.000292 
0.000306 
0.000321 
0.000336 
0.000352 
0.000368 
0.000385 
0.000403 
0.000422 
0.000441 
0.000460 
0.000481 
0.000502 
0.000524 
0.000546 
0.000570 
0.000594 
0.000618 
0.000644 
0.000670 
0.000697 
0.000725 
0.000754 
0.000784 
0.000814 
0.000845 
0.000877 
0.000910 
0.000944 
0.000978 
0.001014 
0.001050 
0.001087 
0.001125 
0.001164 
0.001204 
0.001245 
0.001286 
0.001328 
0.001372 
0.001416 
0.001461 
0.001506 
0.001553 
0.001600 
0.001649 
0.001698 
0.001747 
0.001798 
0.001849 
0.001901 
0.001954 
0.002008 
0.002062 
0.002117 
0.002172 
0.002228 
0.002285 
0.002343 
0.002401 
0.002459 
0.002518 
0.002578 
0.002638 
0.002698 
0.002759 
0.002820 
0.002882 
0.002944 
0.003006 
0.003069 
0.003132 
0.003195 
0.003258 
0.003321 
0.003384 
0.003448 
0.003511 
0.003575 
0.003638 
0.003702 
0.003765 
0.003828 
0.003891 
0.003954 
0.004017 
0.004079 
0.004141 
0.004203 
0.004264 
0.004325 
0.004386 
0.004446 
0.004505 
0.004564 
0.004623 
0.004680 
0.004737 
0.004794 
0.004850 
0.004904 
0.004959 
0.005012 
0.005065 
0.005116 
0.005167 
0.005217 
0.005266 
0.005314 
0.005361 
0.005407 
0.005452 
0.005495 
0.005538 
0.005579 
0.005620 
0.005659 
0.005697 
0.005734 
0.005769 
0.005803 
0.005836 
0.005868 
0.005898 
0.005927 
0.005955 
0.005981 
0.006006 
0.006030 
0.006052 
0.006073 
0.006092 
0.006110 
0.006126 
0.006141 
0.006155 
0.006166 
0.006177 
0.006186 
0.006193 
0.006199 
0.006204 
0.006207 
0.006209 
0.000000 
0.000000 
0.000000 
0.000000 
0.000000 
0.000000 
0.000000 
0.000000 
0.000000 
0.000000 
0.000000 
0.000000 
0.000000 
0.000000 
0.000000 
0.000000 
0.000000 
0.000000 
0.000000 
0.000000 
0.000000 
0.000000 
0.000000 
0.000000 
0.000000 
0.000000 
0.000000 
0.000000 
0.000000 
0.000000 
0.000000 
0.000000 
0.000000 
0.000000 
0.000000 
0.000000 
0.000000 
0.000000 
0.000000 
0.000000 
0.000000 
0.000000 
0.000000 
0.000000 
0.000000 
0.000000 
0.000000 
0.000000 
0.000000 
0.000000 
0.000000 
0.000000 
0.000000 
0.000000 
0.000000 
0.000000 
0.000000 
0.000000 
0.000000 
0.000000 
0.000000 
0.000001 
0.000001 
0.000001 
0.000001 
0.000001 
0.000001 
0.000001 
0.000001 
0.000001 
0.000001 
0.000001 
0.000001 
0.000001 
0.000002 
0.000002 
0.000002 
0.000002 
0.000002 
0.000002 
0.000003 
0.000003 
0.000003 
0.000003 
0.000004 
0.000004 
0.000004 
0.000004 
0.000005 
0.000005 
0.000006 
0.000006 
0.000006 
0.000007 
0.000007 
0.000008 
0.000009 
0.000009 
0.000010 
0.000011 
0.000012 
0.000012 
0.000013 
0.000014 
0.000015 
0.000016 
0.000018 
0.000019 
0.000020 
0.000022 
0.000023 
0.000025 
0.000026 
0.000028 
0.000030 
0.000032 
0.000034 
0.000036 
0.000039 
0.000041 
0.000044 
0.000047 
0.000050 
0.000053 
0.000056 
0.000060 
0.000064 
0.000068 
0.000072 
0.000076 
0.000081 
0.000086 
0.000091 
0.000096 
0.000102 
0.000108 
0.000114 
0.000121 
0.000128 
0.000135 
0.000143 
0.000151 
0.000159 
0.000168 
0.000177 
0.000187 
0.000197 
0.000207 
0.000218 
0.000230 
0.000242 
0.000254 
0.000267 
0.000281 
0.000295 
0.000309 
0.000325 
0.000341 
0.000357 
0.000374 
0.000392 
0.000411 
0.000430 
0.000450 
0.000471 
0.000492 
0.000514 
0.000537 
0.000561 
0.000585 
0.000611 
0.000637 
0.000664 
0.000692 
0.000721 
0.000750 
0.000781 
0.000813 
0.000845 
0.000878 
0.000913 
0.000948 
0.000984 
0.001021 
0.001059 
0.001099 
0.001139 
0.001180 
0.001222 
0.001265 
0.001309 
0.001354 
0.001400 
0.001447 
0.001495 
0.001544 
0.001594 
0.001645 
0.001697 
0.001750 
0.001804 
0.001859 
0.001915 
0.001971 
0.002029 
0.002087 
0.002146 
0.002207 
0.002267 
0.002329 
0.002392 
0.002455 
0.002519 
0.002584 
0.002649 
0.002716 
0.002782 
0.002850 
0.002918 
0.002986 
0.003056 
0.003125 
0.003195 
0.003266 
0.003337 
0.003408 
0.003479 
0.003551 
0.003623 
0.003696 
0.003768 
0.003841 
0.003914 
0.003987 
0.004060 
0.004133 
0.004205 
0.004278 
0.004351 
0.004423 
0.004496 
0.004568 
0.004639 
0.004711 
0.004782 
0.004853 
0.004923 
0.004993 
0.005062 
0.005131 
0.005199 
0.005266 
0.005333 
0.005399 
0.005464 
0.005529 
0.005592 
0.005655 
0.005717 
0.005778 
0.005838 
0.005897 
0.005955 
0.006012 
0.006068 
0.006123 
0.006177 
0.006229 
0.006280 
0.006330 
0.006379 
0.006426 
0.006472 
0.006517 
0.006560 
0.006602 
0.006643 
0.006682 
0.006719 
0.006755 
0.006790 
0.006823 
0.006855 
0.006885 
0.006913 
0.006940 
0.006965 
0.006989 
0.007011 
0.007031 
0.007050 
0.007067 
0.007082 
0.007096 
0.007108 
0.007118 
0.007126 
0.007133 
0.007138 
0.007142 
0.007143 
0.000000 
0.000000 
0.000000 
0.000000 
0.000000 
0.000000 
0.000000 
0.000000 
0.000000 
0.000000 
0.000000 
0.000000 
0.000000 
0.000000 
0.000000 
0.000000 
0.000000 
0.000000 
0.000000 
0.000000 
0.000000 
0.000000 
0.000000 
0.000000 
0.000000 
0.000000 