# vtk DataFile Version 3.0
results.vtk
ASCII
DATASET RECTILINEAR_GRID
DIMENSIONS 301 301 1
X_COORDINATES 301 double
0.000000 0.003333 0.006667 0.010000 0.013333 0.016667 0.020000 0.023333 0.026667 0.030000 0.033333 0.036667 0.040000 0.043333 0.046667 0.050000 0.053333 0.056667 0.060000 0.063333 0.066667 0.070000 0.073333 0.076667 0.080000 0.083333 0.086667 0.090000 0.093333 0.096667 0.100000 0.103333 0.106667 0.110000 0.113333 0.116667 0.120000 0.123333 0.126667 0.130000 0.133333 0.136667 0.140000 0.143333 0.146667 0.150000 0.153333 0.156667 0.160000 0.163333 0.166667 0.170000 0.173333 0.176667 0.180000 0.183333 0.186667 0.190000 0.193333 0.196667 0.200000 0.203333 0.206667 0.210000 0.213333 0.216667 0.220000 0.223333 0.226667 0.230000 0.233333 0.236667 0.240000 0.243333 0.246667 0.250000 0.253333 0.256667 0.260000 0.263333 0.266667 0.270000 0.273333 0.276667 0.280000 0.283333 0.286667 0.290000 0.293333 0.296667 0.300000 0.303333 0.306667 0.310000 0.313333 0.316667 0.320000 0.323333 0.326667 0.330000 0.333333 0.336667 0.340000 0.343333 0.346667 0.350000 0.353333 0.356667 0.360000 0.363333 0.366667 0.370000 0.373333 0.376667 0.380000 0.383333 0.386667 0.390000 0.393333 0.396667 0.400000 0.403333 0.406667 0.410000 0.413333 0.416667 0.420000 0.423333 0.426667 0.430000 0.433333 0.436667 0.440000 0.443333 0.446667 0.450000 0.453333 0.456667 0.460000 0.463333 0.466667 0.470000 0.473333 0.476667 0.480000 0.483333 0.486667 0.490000 0.493333 0.496667 0.500000 0.503333 0.506667 0.510000 0.513333 0.516667 0.520000 0.523333 0.526667 0.530000 0.533333 0.536667 0.540000 0.543333 0.546667 0.550000 0.553333 0.556667 0.560000 0.563333 0.566667 0.570000 0.573333 0.576667 0.580000 0.583333 0.586667 0.590000 0.593333 0.596667 0.600000 0.603333 0.606667 0.610000 0.613333 0.616667 0.620000 0.623333 0.626667 0.630000 0.633333 0.636667 0.640000 0.643333 0.646667 0.650000 0.653333 0.656667 0.660000 0.663333 0.666667 0.670000 0.673333 0.676667 0.680000 0.683333 0.686667 0.690000 0.693333 0.696667 0.700000 0.703333 0.706667 0.710000 0.713333 0.716667 0.720000 0.723333 0.726667 0.730000 0.733333 0.736667 0.740000 0.743333 0.746667 0.750000 0.753333 0.756667 0.760000 0.763333 0.766667 0.770000 0.773333 0.776667 0.780000 0.783333 0.786667 0.790000 0.793333 0.796667 0.800000 0.803333 0.806667 0.810000 0.813333 0.816667 0.820000 0.823333 0.826667 0.830000 0.833333 0.836667 0.840000 0.843333 0.846667 0.850000 0.853333 0.856667 0.860000 0.863333 0.866667 0.870000 0.873333 0.876667 0.880000 0.883333 0.886667 0.890000 0.893333 0.896667 0.900000 0.903333 0.906667 0.910000 0.913333 0.916667 0.920000 0.923333 0.926667 0.930000 0.933333 0.936667 0.940000 0.943333 0.946667 0.950000 0.953333 0.956667 0.960000 0.963333 0.966667 0.970000 0.973333 0.976667 0.980000 0.983333 0.986667 0.990000 0.993333 0.996667 1.000000 
Y_COORDINATES 301 double
0.000000 0.003333 0.006667 0.010000 0.013333 0.016667 0.020000 0.023333 0.026667 0.030000 0.033333 0.036667 0.040000 0.043333 0.046667 0.050000 0.053333 0.056667 0.060000 0.063333 0.066667 0.070000 0.073333 0.076667 0.080000 0.083333 0.086667 0.090000 0.093333 0.096667 0.100000 0.103333 0.106667 0.110000 0.113333 0.116667 0.120000 0.123333 0.126667 0.130000 0.133333 0.136667 0.140000 0.143333 0.146667 0.150000 0.153333 0.156667 0.160000 0.163333 0.166667 0.170000 0.173333 0.176667 0.180000 0.183333 0.186667 0.190000 0.193333 0.196667 0.200000 0.203333 0.206667 0.210000 0.213333 0.216667 0.220000 0.223333 0.226667 0.230000 0.233333 0.236667 0.240000 0.243333 0.246667 0.250000 0.253333 0.256667 0.260000 0.263333 0.266667 0.270000 0.273333 0.276667 0.280000 0.283333 0.286667 0.290000 0.293333 0.296667 0.300000 0.303333 0.306667 0.310000 0.313333 0.316667 0.320000 0.323333 0.326667 0.330000 0.333333 0.336667 0.340000 0.343333 0.346667 0.350000 0.353333 0.356667 0.360000 0.363333 0.366667 0.370000 0.373333 0.376667 0.380000 0.383333 0.386667 0.390000 0.393333 0.396667 0.400000 0.403333 0.406667 0.410000 0.413333 0.416667 0.420000 0.423333 0.426667 0.430000 0.433333 0.436667 0.440000 0.443333 0.446667 0.450000 0.453333 0.456667 0.460000 0.463333 0.466667 0.470000 0.473333 0.476667 0.480000 0.483333 0.486667 0.490000 0.493333 0.496667 0.500000 0.503333 0.506667 0.510000 0.513333 0.516667 0.520000 0.523333 0.526667 0.530000 0.533333 0.536667 0.540000 0.543333 0.546667 0.550000 0.553333 0.556667 0.560000 0.563333 0.566667 0.570000 0.573333 0.576667 0.580000 0.583333 0.586667 0.590000 0.593333 0.596667 0.600000 0.603333 0.606667 0.610000 0.613333 0.616667 0.620000 0.623333 0.626667 0.630000 0.633333 0.636667 0.640000 0.643333 0.646667 0.650000 0.653333 0.656667 0.660000 0.663333 0.666667 0.670000 0.673333 0.676667 0.680000 0.683333 0.686667 0.690000 0.693333 0.696667 0.700000 0.703333 0.706667 0.710000 0.713333 0.716667 0.720000 0.723333 0.726667 0.730000 0.733333 0.736667 0.740000 0.743333 0.746667 0.750000 0.753333 0.756667 0.760000 0.763333 0.766667 0.770000 0.773333 0.776667 0.780000 0.783333 0.786667 0.790000 0.793333 0.796667 0.800000 0.803333 0.806667 0.810000 0.813333 0.816667 0.820000 0.823333 0.826667 0.830000 0.833333 0.836667 0.840000 0.843333 0.846667 0.850000 0.853333 0.856667 0.860000 0.863333 0.866667 0.870000 0.873333 0.876667 0.880000 0.883333 0.886667 0.890000 0.893333 0.896667 0.900000 0.903333 0.906667 0.910000 0.913333 0.916667 0.920000 0.923333 0.926667 0.930000 0.933333 0.936667 0.940000 0.943333 0.946667 0.950000 0.953333 0.956667 0.960000 0.963333 0.966667 0.970000 0.973333 0.976667 0.980000 0.983333 0.986667 0.990000 0.993333 0.996667 1.000000 
Z_COORDINATES 1 double
0
POINT_DATA 90601 
FIELD FieldData 1 
Concentração 1 90601 double 
0.000000 
0.000000 
0.000000 
0.000000 
0.000000 
0.000000 
0.000000 
0.000000 
0.000000 
0.000000 
0.000000 
0.000000 
0.000000 
0.000000 
0.000000 
0.000000 
0.000000 
0.000000 
0.000000 
0.000000 
0.000000 
0.000000 
0.000000 
0.000000 
0.000000 
0.000000 
0.000000 
0.000000 
0.000000 
0.000000 
0.000000 
0.000000 
0.000000 
0.000000 
0.000000 
0.000000 
0.000000 
0.000000 
0.000000 
0.000000 
0.000000 
0.000000 
0.000000 
0.000000 
0.000000 
0.000000 
0.000000 
0.000000 
0.000000 
0.000000 
0.000000 
0.000000 
0.000000 
0.000000 
0.000000 
0.000000 
0.000000 
0.000000 
0.000000 
0.000000 
0.000000 
0.000000 
0.000000 
0.000000 
0.000000 
0.000000 
0.000000 
0.000000 
0.000000 
0.000000 
0.000000 
0.000000 
0.000000 
0.000000 
0.000001 
0.000001 
0.000001 
0.000001 
0.000001 
0.000001 
0.000001 
0.000001 
0.000001 
0.000001 
0.000001 
0.000001 
0.000001 
0.000001 
0.000002 
0.000002 
0.000002 
0.000002 
0.000002 
0.000002 
0.000002 
0.000003 
0.000003 
0.000003 
0.000003 
0.000003 
0.000004 
0.000004 
0.000004 
0.000004 
0.000005 
0.000005 
0.000005 
0.000006 
0.000006 
0.000007 
0.000007 
0.000008 
0.000008 
0.000009 
0.000009 
0.000010 
0.000010 
0.000011 
0.000012 
0.000012 
0.000013 
0.000014 
0.000015 
0.000016 
0.000017 
0.000018 
0.000019 
0.000020 
0.000021 
0.000022 
0.000024 
0.000025 
0.000027 
0.000028 
0.000030 
0.000031 
0.000033 
0.000035 
0.000037 
0.000039 
0.000041 
0.000043 
0.000045 
0.000048 
0.000050 
0.000053 
0.000056 
0.000058 
0.000061 
0.000064 
0.000068 
0.000071 
0.000074 
0.000078 
0.000082 
0.000086 
0.000090 
0.000094 
0.000098 
0.000103 
0.000107 
0.000112 
0.000117 
0.000122 
0.000127 
0.000133 
0.000138 
0.000144 
0.000150 
0.000156 
0.000163 
0.000169 
0.000176 
0.000183 
0.000190 
0.000197 
0.000205 
0.000213 
0.000221 
0.000229 
0.000237 
0.000246 
0.000254 
0.000263 
0.000272 
0.000282 
0.000291 
0.000301 
0.000311 
0.000321 
0.000331 
0.000342 
0.000353 
0.000364 
0.000375 
0.000386 
0.000397 
0.000409 
0.000421 
0.000433 
0.000445 
0.000458 
0.000470 
0.000483 
0.000496 
0.000509 
0.000522 
0.000535 
0.000548 
0.000562 
0.000576 
0.000590 
0.000603 
0.000617 
0.000632 
0.000646 
0.000660 
0.000675 
0.000689 
0.000704 
0.000718 
0.000733 
0.000748 
0.000762 
0.000777 
0.000792 
0.000807 
0.000822 
0.000837 
0.000852 
0.000867 
0.000881 
0.000896 
0.000911 
0.000926 
0.000941 
0.000955 
0.000970 
0.000985 
0.000999 
0.001014 
0.001028 
0.001042 
0.001056 
0.001070 
0.001084 
0.001098 
0.001112 
0.001125 
0.001139 
0.001152 
0.001165 
0.001178 
0.001191 
0.001203 
0.001216 
0.001228 
0.001240 
0.001252 
0.001263 
0.001275 
0.001286 
0.001297 
0.001308 
0.001318 
0.001329 
0.001339 
0.001349 
0.001358 
0.001368 
0.001377 
0.001386 
0.001394 
0.001403 
0.001411 
0.001418 
0.001426 
0.001433 
0.001440 
0.001447 
0.001453 
0.001459 
0.001465 
0.001471 
0.001476 
0.001481 
0.001486 
0.001490 
0.001494 
0.001498 
0.001501 
0.001504 
0.001507 
0.001509 
0.001512 
0.001514 
0.001515 
0.001516 
0.001517 
0.001518 
0.001518 
0.000000 
0.000000 
0.000000 
0.000000 
0.000000 
0.000000 
0.000000 
0.000000 
0.000000 
0.000000 
0.000000 
0.000000 
0.000000 
0.000000 
0.000000 
0.000000 
0.000000 
0.000000 
0.000000 
0.000000 
0.000000 
0.000000 
0.000000 
0.000000 
0.000000 
0.000000 
0.000000 
0.000000 
0.000000 
0.000000 
0.000000 
0.000000 
0.000000 
0.000000 
0.000000 
0.000000 
0.000000 
0.000000 
0.000000 
0.000000 
0.000000 
0.000000 
0.000000 
0.000000 
0.000000 
0.000000 
0.000000 
0.000000 
0.000000 
0.000000 
0.000000 
0.000000 
0.000000 
0.000000 
0.000000 
0.000000 
0.000000 
0.000000 
0.000000 
0.000000 
0.000000 
0.000000 
0.000000 
0.000000 
0.000000 
0.000001 
0.000001 
0.000001 
0.000001 
0.000001 
0.000001 
0.000001 
0.000001 
0.000001 
0.000001 
0.000001 
0.000001 
0.000001 
0.000001 
0.000002 
0.000002 
0.000002 
0.000002 
0.000002 
0.000002 
0.000002 
0.000003 
0.000003 
0.000003 
0.000003 
0.000004 
0.000004 
0.000004 
0.000004 
0.000005 
0.000005 
0.000006 
0.000006 
0.000006 
0.000007 
0.000007 
0.000008 
0.000008 
0.000009 
0.000010 
0.000010 
0.000011 
0.000012 
0.000012 
0.000013 
0.000014 
0.000015 
0.000016 
0.000017 
0.000018 
0.000019 
0.000021 
0.000022 
0.000023 
0.000025 
0.000027 
0.000028 
0.000030 
0.000032 
0.000034 
0.000036 
0.000038 
0.000040 
0.000043 
0.000045 
0.000048 
0.000050 
0.000053 
0.000056 
0.000060 
0.000063 
0.000066 
0.000070 
0.000074 
0.000078 
0.000082 
0.000087 
0.000091 
0.000096 
0.000101 
0.000106 
0.000112 
0.000117 
0.000123 
0.000129 
0.000136 
0.000142 
0.000149 
0.000157 
0.000164 
0.000172 
0.000180 
0.000188 
0.000197 
0.000206 
0.000215 
0.000225 
0.000235 
0.000245 
0.000256 
0.000266 
0.000278 
0.000289 
0.000301 
0.000314 
0.000327 
0.000340 
0.000353 
0.000367 
0.000381 
0.000396 
0.000411 
0.000427 
0.000443 
0.000459 
0.000476 
0.000493 
0.000510 
0.000528 
0.000546 
0.000565 
0.000584 
0.000604 
0.000623 
0.000644 
0.000664 
0.000686 
0.000707 
0.000729 
0.000751 
0.000774 
0.000797 
0.000820 
0.000844 
0.000868 
0.000892 
0.000917 
0.000942 
0.000968 
0.000993 
0.001019 
0.001046 
0.001072 
0.001099 
0.001126 
0.001154 
0.001181 
0.001209 
0.001237 
0.001265 
0.001294 
0.001323 
0.001351 
0.001380 
0.001409 
0.001439 
0.001468 
0.001498 
0.001527 
0.001557 
0.001586 
0.001616 
0.001646 
0.001676 
0.001705 
0.001735 
0.001765 
0.001795 
0.001824 
0.001854 
0.001883 
0.001913 
0.001942 
0.001971 
0.002000 
0.002029 
0.002057 
0.002086 
0.002114 
0.002142 
0.002170 
0.002197 
0.002225 
0.002252 
0.002278 
0.002305 
0.002331 
0.002357 
0.002382 
0.002407 
0.002432 
0.002457 
0.002481 
0.002504 
0.002527 
0.002550 
0.002573 
0.002595 
0.002616 
0.002637 
0.002658 
0.002678 
0.002698 
0.002717 
0.002735 
0.002754 
0.002771 
0.002788 
0.002805 
0.002821 
0.002837 
0.002852 
0.002866 
0.002880 
0.002893 
0.002906 
0.002918 
0.002930 
0.002941 
0.002951 
0.002961 
0.002970 
0.002979 
0.002987 
0.002994 
0.003001 
0.003008 
0.003013 
0.003018 
0.003022 
0.003026 
0.003029 
0.003032 
0.003034 
0.003035 
0.003036 
0.000000 
0.000000 
0.000000 
0.000000 
0.000000 
0.000000 
0.000000 
0.000000 
0.000000 
0.000000 
0.000000 
0.000000 
0.000000 
0.000000 
0.000000 
0.000000 
0.000000 
0.000000 
0.000000 
0.000000 
0.000000 
0.000000 
0.000000 
0.000000 
0.000000 
0.000000 
0.000000 
0.000000 
0.000000 
0.000000 
0.000000 
0.000000 
0.000000 
0.000000 
0.000000 
0.000000 
0.000000 
0.000000 
0.000000 
0.000000 
0.000000 
0.000000 
0.000000 
0.000000 
0.000000 
0.000000 
0.000000 
0.000000 
0.000000 
0.000000 
0.000000 
0.000000 
0.000000 
0.000000 
0.000000 
0.000000 
0.000000 
0.000000 
0.000000 
0.000000 
0.000001 
0.000001 
0.000001 
0.000001 
0.000001 
0.000001 
0.000001 
0.000001 
0.000001 
0.000001 
0.000001 
0.000001 
0.000001 
0.000001 
0.000002 
0.000002 
0.000002 
0.000002 
0.000002 
0.000002 
0.000003 
0.000003 
0.000003 
0.000003 
0.000003 
0.000004 
0.000004 
0.000004 
0.000005 
0.000005 
0.000005 
0.000006 
0.000006 
0.000007 
0.000007 
0.000008 
0.000008 
0.000009 
0.000010 
0.000010 
0.000011 
0.000012 
0.000013 
0.000013 
0.000014 
0.000015 
0.000016 
0.000018 
0.000019 
0.000020 
0.000021 
0.000023 
0.000024 
0.000026 
0.000028 
0.000029 
0.000031 
0.000033 
0.000036 
0.000038 
0.000040 
0.000043 
0.000045 
0.000048 
0.000051 
0.000054 
0.000057 
0.000061 
0.000064 
0.000068 
0.000072 
0.000076 
0.000081 
0.000085 
0.000090 
0.000095 
0.000100 
0.000106 
0.000112 
0.000118 
0.000124 
0.000131 
0.000138 
0.000145 
0.000153 
0.000160 
0.000169 
0.000177 
0.000186 
0.000195 
0.000205 
0.000215 
0.000226 
0.000236 
0.000248 
0.000259 
0.000272 
0.000284 
0.000297 
0.000311 
0.000325 
0.000339 
0.000354 
0.000370 
0.000386 
0.000402 
0.000419 
0.000437 
0.000455 
0.000474 
0.000493 
0.000513 
0.000533 
0.000554 
0.000575 
0.000597 
0.000620 
0.000643 
0.000667 
0.000692 
0.000717 
0.000743 
0.000769 
0.000796 
0.000823 
0.000852 
0.000880 
0.000910 
0.000940 
0.000970 
0.001001 
0.001033 
0.001065 
0.001098 
0.001132 
0.001166 
0.001200 
0.001235 
0.001271 
0.001307 
0.001344 
0.001381 
0.001418 
0.001457 
0.001495 
0.001534 
0.001574 
0.001614 
0.001654 
0.001695 
0.001736 
0.001777 
0.001819 
0.001861 
0.001904 
0.001946 
0.001989 
0.002033 
0.002076 
0.002120 
0.002164 
0.002208 
0.002252 
0.002296 
0.002340 
0.002385 
0.002429 
0.002474 
0.002519 
0.002563 
0.002608 
0.002652 
0.002697 
0.002741 
0.002785 
0.002829 
0.002873 
0.002917 
0.002961 
0.003004 
0.003047 
0.003090 
0.003133 
0.003175 
0.003217 
0.003258 
0.003299 
0.003340 
0.003381 
0.003421 
0.003460 
0.003499 
0.003538 
0.003576 
0.003613 
0.003650 
0.003687 
0.003723 
0.003758 
0.003793 
0.003827 
0.003860 
0.003893 
0.003925 
0.003957 
0.003988 
0.004018 
0.004047 
0.004076 
0.004104 
0.004131 
0.004157 
0.004183 
0.004208 
0.004232 
0.004255 
0.004277 
0.004299 
0.004319 
0.004339 
0.004358 
0.004377 
0.004394 
0.004410 
0.004426 
0.004441 
0.004454 
0.004467 
0.004479 
0.004490 
0.004501 
0.004510 
0.004518 
0.004526 
0.004532 
0.004538 
0.004542 
0.004546 
0.004549 
0.004551 
0.004552 
0.000000 
0.000000 
0.000000 
0.000000 
0.000000 
0.000000 
0.000000 
0.000000 
0.000000 
0.000000 
0.000000 
0.000000 
0.000000 
0.000000 
0.000000 
0.000000 
0.000000 
0.000000 
0.000000 
0.000000 
0.000000 
0.000000 
0.000000 
0.000000 
0.000000 
0.000000 
0.000000 
0.000000 
0.000000 
0.000000 
0.000000 
0.000000 
0.000000 
0.000000 
0.000000 
0.000000 
0.000000 
0.000000 
0.000000 
0.000000 
0.000000 
0.000000 
0.000000 
0.000000 
0.000000 
0.000000 
0.000000 
0.000000 
0.000000 
0.000000 
0.000000 
0.000000 
0.000000 
0.000000 
0.000000 
0.000000 
0.000000 
0.000001 
0.000001 
0.000001 
0.000001 
0.000001 
0.000001 
0.000001 
0.000001 
0.000001 
0.000001 
0.000001 
0.000001 
0.000001 
0.000002 
0.000002 
0.000002 
0.000002 
0.000002 
0.000002 
0.000003 
0.000003 
0.000003 
0.000003 
0.000003 
0.000004 
0.000004 
0.000004 
0.000005 
0.000005 
0.000005 
0.000006 
0.000006 
0.000007 
0.000007 
0.000008 
0.000008 
0.000009 
0.000010 
0.000010 
0.000011 
0.000012 
0.000013 
0.000014 
0.000015 
0.000016 
0.000017 
0.000018 
0.000019 
0.000021 
0.000022 
0.000024 
0.000025 
0.000027 
0.000029 
0.000031 
0.000033 
0.000035 
0.000037 
0.000040 
0.000042 
0.000045 
0.000048 
0.000051 
0.000054 
0.000057 
0.000061 
0.000065 
0.000069 
0.000073 
0.000077 
0.000082 
0.000087 
0.000092 
0.000097 
0.000103 
0.000109 
0.000115 
0.000121 
0.000128 
0.000135 
0.000143 
0.000150 
0.000159 
0.000167 
0.000176 
0.000185 
0.000195 
0.000205 
0.000216 
0.000227 
0.000239 
0.000251 
0.000263 
0.000276 
0.000290 
0.000304 
0.000318 
0.000333 
0.000349 
0.000365 
0.000382 
0.000400 
0.000418 
0.000437 
0.000456 
0.000476 
0.000497 
0.000518 
0.000541 
0.000563 
0.000587 
0.000611 
0.000636 
0.000662 
0.000689 
0.000716 
0.000744 
0.000773 
0.000803 
0.000833 
0.000864 
0.000896 
0.000929 
0.000963 
0.000997 
0.001033 
0.001069 
0.001105 
0.001143 
0.001182 
0.001221 
0.001261 
0.001302 
0.001343 
0.001386 
0.001429 
0.001473 
0.001518 
0.001563 
0.001609 
0.001656 
0.001704 
0.001752 
0.001801 
0.001851 
0.001901 
0.001952 
0.002004 
0.002056 
0.002109 
0.002162 
0.002216 
0.002270 
0.002325 
0.002380 
0.002436 
0.002492 
0.002549 
0.002606 
0.002663 
0.002721 
0.002778 
0.002837 
0.002895 
0.002954 
0.003013 
0.003072 
0.003131 
0.003190 
0.003249 
0.003309 
0.003368 
0.003427 
0.003487 
0.003546 
0.003605 
0.003664 
0.003723 
0.003781 
0.003840 
0.003898 
0.003956 
0.004014 
0.004071 
0.004128 
0.004184 
0.004240 
0.004296 
0.004351 
0.004406 
0.004460 
0.004514 
0.004567 
0.004619 
0.004671 
0.004723 
0.004773 
0.004823 
0.004872 
0.004920 
0.004968 
0.005015 
0.005061 
0.005106 
0.005151 
0.005194 
0.005237 
0.005279 
0.005319 
0.005359 
0.005398 
0.005436 
0.005473 
0.005509 
0.005544 
0.005578 
0.005611 
0.005643 
0.005673 
0.005703 
0.005732 
0.005759 
0.005786 
0.005811 
0.005835 
0.005858 
0.005880 
0.005900 
0.005920 
0.005938 
0.005955 
0.005971 
0.005986 
0.005999 
0.006011 
0.006022 
0.006032 
0.006041 
0.006048 
0.006054 
0.006059 
0.006063 
0.006066 
0.006067 
0.000000 
0.000000 
0.000000 
0.000000 
0.000000 
0.000000 
0.000000 
0.000000 
0.000000 
0.000000 
0.000000 
0.000000 
0.000000 
0.000000 
0.000000 
0.000000 
0.000000 
0.000000 
0.000000 
0.000000 
0.000000 
0.000000 
0.000000 
0.000000 
0.000000 
0.000000 
0.000000 
0.000000 
0.000000 
0.000000 
0.000000 
0.000000 
0.000000 
0.000000 
0.000000 
0.000000 
0.000000 
0.000000 
0.000000 
0.000000 
0.000000 
0.000000 
0.000000 
0.000000 
0.000000 
0.000000 
0.000000 
0.000000 
0.000000 
0.000000 
0.000000 
0.000000 
0.000000 
0.000000 
0.000001 
0.000001 
0.000001 
0.000001 
0.000001 
0.000001 
0.000001 
0.000001 
0.000001 
0.000001 
0.000001 
0.000001 
0.000001 
0.000002 
0.000002 
0.000002 
0.000002 
0.000002 
0.000002 
0.000003 
0.000003 
0.000003 
0.000003 
0.000003 
0.000004 
0.000004 
0.000004 
0.000005 
0.000005 
0.000006 
0.000006 
0.000006 
0.000007 
0.000007 
0.000008 
0.000009 
0.000009 
0.000010 
0.000011 
0.000012 
0.000012 
0.000013 
0.000014 
0.000015 
0.000016 
0.000018 
0.000019 
0.000020 
0.000022 
0.000023 
0.000025 
0.000026 
0.000028 
0.000030 
0.000032 
0.000034 
0.000037 
0.000039 
0.000042 
0.000044 
0.000047 
0.000050 
0.000054 
0.000057 
0.000061 
0.000064 
0.000068 
0.000073 
0.000077 
0.000082 
0.000087 
0.000092 
0.000098 
0.000104 
0.000110 
0.000116 
0.000123 
0.000130 
0.000137 
0.000145 
0.000154 
0.000162 
0.000171 
0.000181 
0.000190 
0.000201 
0.000212 
0.000223 
0.000235 
0.000247 
0.000260 
0.000273 
0.000287 
0.000302 
0.000317 
0.000333 
0.000349 
0.000366 
0.000384 
0.000402 
0.000421 
0.000441 
0.000462 
0.000483 
0.000505 
0.000528 
0.000552 
0.000576 
0.000602 
0.000628 
0.000655 
0.000683 
0.000712 
0.000742 
0.000772 
0.000804 
0.000836 
0.000870 
0.000904 
0.000939 
0.000976 
0.001013 
0.001051 
0.001091 
0.001131 
0.001172 
0.001215 
0.001258 
0.001302 
0.001348 
0.001394 
0.001441 
0.001490 
0.001539 
0.001589 
0.001641 
0.001693 
0.001746 
0.001800 
0.001855 
0.001912 
0.001969 
0.002027 
0.002085 
0.002145 
0.002206 
0.002267 
0.002329 
0.002392 
0.002456 
0.002521 
0.002586 
0.002652 
0.002719 
0.002786 
0.002854 
0.002923 
0.002992 
0.003062 
0.003132 
0.003203 
0.003274 
0.003346 
0.003418 
0.003490 
0.003563 
0.003636 
0.003709 
0.003782 
0.003856 
0.003930 
0.004004 
0.004078 
0.004152 
0.004226 
0.004300 
0.004374 
0.004448 
0.004521 
0.004595 
0.004668 
0.004741 
0.004814 
0.004887 
0.004959 
0.005031 
0.005102 
0.005173 
0.005243 
0.005313 
0.005382 
0.005451 
0.005519 
0.005586 
0.005653 
0.005719 
0.005784 
0.005849 
0.005913 
0.005975 
0.006037 
0.006098 
0.006159 
0.006218 
0.006276 
0.006333 
0.006389 
0.006445 
0.006499 
0.006552 
0.006603 
0.006654 
0.006704 
0.006752 
0.006799 
0.006845 
0.006890 
0.006933 
0.006975 
0.007016 
0.007055 
0.007093 
0.007130 
0.007166 
0.007200 
0.007233 
0.007264 
0.007294 
0.007322 
0.007349 
0.007375 
0.007399 
0.007421 
0.007443 
0.007462 
0.007481 
0.007497 
0.007513 
0.007526 
0.007538 
0.007549 
0.007558 
0.007566 
0.007572 
0.007577 
0.007580 
0.007581 
0.000000 
0.000000 
0.000000 
0.000000 
0.000000 
0.000000 
0.000000 
0.000000 
0.000000 
0.000000 
0.000000 
0.000000 
0.000000 
0.000000 
0.000000 
0.000000 
0.000000 
0.000000 
0.000000 
0.000000 
0.000000 
0.000000 
0.000000 
0.000000 
0.000000 
0.000000 
0.000000 
0.000000 
0.000000 
0.000000 
0.000000 
0.000000 
0.000000 
0.000000 
0.000000 
0.000000 
0.000000 
0.000000 
0.000000 
0.000000 
0.000000 
0.000000 
0.000000 
0.000000 
0.000000 
0.000000 
0.000000 
0.000000 
0.000000 
0.000000 
0.000000 
0.000000 
0.000001 
0.000001 
0.000001 
0.000001 
0.000001 
0.000001 
0.000001 
0.000001 
0.000001 
0.000001 
0.000001 
0.000001 
0.000002 
0.000002 
0.000002 
0.000002 
0.000002 
0.000002 
0.000002 
0.000003 
0.000003 
0.000003 
0.000003 
0.000004 
0.000004 
0.000004 
0.000005 
0.000005 
0.000005 
0.000006 
0.000006 
0.000007 
0.000007 
0.000008 
0.000008 
0.000009 
0.000010 
0.000011 
0.000011 
0.000012 
0.000013 
0.000014 
0.000015 
0.000016 
0.000017 
0.000019 
0.000020 
0.000021 
0.000023 
0.000025 
0.000026 
0.000028 
0.000030 
0.000032 
0.000034 
0.000037 
0.000039 
0.000042 
0.000045 
0.000048 
0.000051 
0.000054 
0.000058 
0.000061 
0.000065 
0.000070 
0.000074 
0.000079 
0.000084 
0.000089 
0.000094 
0.000100 
0.000106 
0.000112 
0.000119 
0.000126 
0.000134 
0.000142 
0.000150 
0.000159 
0.000168 
0.000177 
0.000187 
0.000198 
0.000209 
0.000220 
0.000232 
0.000245 
0.000258 
0.000272 
0.000286 
0.000301 
0.000316 
0.000333 
0.000350 
0.000367 
0.000386 
0.000405 
0.000425 
0.000446 
0.000467 
0.000490 
0.000513 
0.000537 
0.000562 
0.000588 
0.000615 
0.000643 
0.000671 
0.000701 
0.000732 
0.000764 
0.000796 
0.000830 
0.000865 
0.000901 
0.000938 
0.000977 
0.001016 
0.001056 
0.001098 
0.001141 
0.001185 
0.001230 
0.001276 
0.001324 
0.001373 
0.001423 
0.001474 
0.001526 
0.001580 
0.001634 
0.001690 
0.001748 
0.001806 
0.001865 
0.001926 
0.001988 
0.002051 
0.002116 
0.002181 
0.002247 
0.002315 
0.002384 
0.002454 
0.002525 
0.002596 
0.002669 
0.002743 
0.002818 
0.002894 
0.002971 
0.003049 
0.003127 
0.003207 
0.003287 
0.003368 
0.003450 
0.003532 
0.003615 
0.003699 
0.003783 
0.003868 
0.003954 
0.004040 
0.004126 
0.004213 
0.004300 
0.004388 
0.004475 
0.004563 
0.004652 
0.004740 
0.004829 
0.004917 
0.005006 
0.005095 
0.005183 
0.005272 
0.005360 
0.005448 
0.005536 
0.005624 
0.005711 
0.005798 
0.005885 
0.005971 
0.006057 
0.006142 
0.006227 
0.006311 
0.006394 
0.006477 
0.006559 
0.006640 
0.006721 
0.006800 
0.006879 
0.006957 
0.007034 
0.007110 
0.007185 
0.007259 
0.007331 
0.007403 
0.007474 
0.007543 
0.007611 
0.007678 
0.007744 
0.007808 
0.007871 
0.007933 
0.007993 
0.008052 
0.008110 
0.008166 
0.008220 
0.008273 
0.008325 
0.008375 
0.008424 
0.008471 
0.008516 
0.008560 
0.008602 
0.008642 
0.008681 
0.008718 
0.008754 
0.008788 
0.008820 
0.008850 
0.008879 
0.008906 
0.008931 
0.008954 
0.008976 
0.008996 
0.009014 
0.009030 
0.009045 
0.009058 
0.009068 
0.009078 
0.009085 
0.009090 
0.009094 
0.009096 
0.000000 
0.000000 
0.000000 
0.000000 
0.000000 
0.000000 
0.000000 
0.000000 
0.000000 
0.000000 
0.000000 
0.000000 
0.000000 
0.000000 
0.000000 
0.000000 
0.000000 
0.000000 
0.000000 
0.000000 
0.000000 
0.000000 
0.000000 
0.000000 
0.000000 
0.000000 
0.000000 
0.000000 
0.000000 
0.000000 
0.000000 
0.000000 
0.000000 
0.000000 
0.000000 
0.000000 
0.000000 
0.000000 
0.000000 
0.000000 
0.000000 
0.000000 
0.000000 
0.000000 
0.000000 
0.000000 
0.000000 
0.000000 
0.000000 
0.000000 
0.000001 
0.000001 
0.000001 
0.000001 
0.000001 
0.000001 
0.000001 
0.000001 
0.000001 
0.000001 
0.000001 
0.000001 
0.000002 
0.000002 
0.000002 
0.000002 
0.000002 
0.000002 
0.000002 
0.000003 
0.000003 
0.000003 
0.000003 
0.000004 
0.000004 
0.000004 
0.000005 
0.000005 
0.000005 
0.000006 
0.000006 
0.000007 
0.000007 
0.000008 
0.000009 
0.000009 
0.000010 
0.000011 
0.000012 
0.000013 
0.000014 
0.000015 
0.000016 
0.000017 
0.000018 
0.000019 
0.000021 
0.000022 
0.000024 
0.000026 
0.000027 
0.000029 
0.000031 
0.000034 
0.000036 
0.000038 
0.000041 
0.000044 
0.000047 
0.000050 
0.000053 
0.000057 
0.000060 
0.000064 
0.000069 
0.000073 
0.000078 
0.000083 
0.000088 
0.000094 
0.000099 
0.000106 
0.000112 
0.000119 
0.000126 
0.000134 
0.000142 
0.000150 
0.000159 
0.000168 
0.000178 
0.000188 
0.000199 
0.000211 
0.000222 
0.000235 
0.000248 
0.000261 
0.000276 
0.000291 
0.000306 
0.000322 
0.000339 
0.000357 
0.000376 
0.000395 
0.000415 
0.000436 
0.000458 
0.000481 
0.000504 
0.000529 
0.000554 
0.000581 
0.000608 
0.000637 
0.000666 
0.000697 
0.000729 
0.000762 
0.000796 
0.000831 
0.000867 
0.000905 
0.000943 
0.000983 
0.001025 
0.001067 
0.001111 
0.001156 
0.001202 
0.001250 
0.001299 
0.001350 
0.001402 
0.001455 
0.001509 
0.001565 
0.001623 
0.001682 
0.001742 
0.001803 
0.001866 
0.001931 
0.001997 
0.002064 
0.002132 
0.002202 
0.002274 
0.002347 
0.002421 
0.002496 
0.002573 
0.002651 
0.002730 
0.002811 
0.002893 
0.002976 
0.003060 
0.003146 
0.003232 
0.003320 
0.003409 
0.003499 
0.003590 
0.003682 
0.003775 
0.003868 
0.003963 
0.004059 
0.004155 
0.004252 
0.004350 
0.004448 
0.004548 
0.004647 
0.004748 
0.004848 
0.004950 
0.005051 
0.005153 
0.005256 
0.005358 
0.005461 
0.005564 
0.005667 
0.005770 
0.005874 
0.005977 
0.006080 
0.006183 
0.006285 
0.006388 
0.006490 
0.006592 
0.006694 
0.006795 
0.006895 
0.006996 
0.007095 
0.007194 
0.007292 
0.007390 
0.007486 
0.007582 
0.007677 
0.007772 
0.007865 
0.007957 
0.008048 
0.008139 
0.008228 
0.008316 
0.008402 
0.008488 
0.008572 
0.008655 
0.008737 
0.008817 
0.008896 
0.008973 
0.009049 
0.009124 
0.009197 
0.009268 
0.009338 
0.009406 
0.009472 
0.009537 
0.009600 
0.009662 
0.009721 
0.009779 
0.009835 
0.009889 
0.009942 
0.009992 
0.010041 
0.010088 
0.010133 
0.010176 
0.010217 
0.010256 
0.010293 
0.010328 
0.010361 
0.010392 
0.010421 
0.010448 
0.010473 
0.010496 
0.010517 
0.010536 
0.010552 
0.010567 
0.010580 
0.010590 
0.010599 
0.010605 
0.010609 
0.010611 
0.000000 
0.000000 
0.000000 
0.000000 
0.000000 
0.000000 
0.000000 
0.000000 
0.000000 
0.000000 
0.000000 
0.000000 
0.000000 
0.000000 
0.000000 
0.000000 
0.000000 
0.000000 
0.000000 
0.000000 
0.000000 
0.000000 
0.000000 
0.000000 
0.000000 
0.000000 
0.000000 
0.000000 
0.000000 
0.000000 
0.000000 
0.000000 
0.000000 
0.000000 
0.000000 
0.000000 
0.000000 
0.000000 
0.000000 
0.000000 
0.000000 
0.000000 
0.000000 
0.000000 
0.000000 
0.000000 
0.000000 
0.000000 
0.000001 
0.000001 
0.000001 
0.000001 
0.000001 
0.000001 
0.000001 
0.000001 
0.000001 
0.000001 
0.000001 
0.000001 
0.000002 
0.000002 
0.000002 
0.000002 
0.000002 
0.000002 
0.000002 
0.000003 
0.000003 
0.000003 
0.000003 
0.000004 
0.000004 
0.000004 
0.000005 
0.000005 
0.000006 
0.000006 
0.000006 
0.000007 
0.000008 
0.000008 
0.000009 
0.000009 
0.000010 
0.000011 
0.000012 
0.000013 
0.000014 
0.000015 
0.000016 
0.000017 
0.000018 
0.000020 
0.000021 
0.000023 
0.000024 
0.000026 
0.000028 
0.000030 
0.000032 
0.000034 
0.000037 
0.000039 
0.000042 
0.000045 
0.000048 
0.000051 
0.000055 
0.000058 
0.000062 
0.000066 
0.000071 
0.000075 
0.000080 
0.000085 
0.000091 
0.000097 
0.000103 
0.000109 
0.000116 
0.000123 
0.000131 
0.000139 
0.000147 
0.000156 
0.000166 
0.000175 
0.000186 
0.000197 
0.000208 
0.000220 
0.000233 
0.000246 
0.000260 
0.000274 
0.000289 
0.000305 
0.000322 
0.000339 
0.000357 
0.000376 
0.000396 
0.000416 
0.000438 
0.000460 
0.000484 
0.000508 
0.000534 
0.000560 
0.000587 
0.000616 
0.000646 
0.000676 
0.000708 
0.000741 
0.000776 
0.000811 
0.000848 
0.000886 
0.000926 
0.000966 
0.001008 
0.001052 
0.001097 
0.001143 
0.001191 
0.001240 
0.001291 
0.001343 
0.001397 
0.001452 
0.001509 
0.001567 
0.001627 
0.001689 
0.001752 
0.001817 
0.001883 
0.001951 
0.002020 
0.002091 
0.002164 
0.002238 
0.002314 
0.002392 
0.002471 
0.002551 
0.002634 
0.002717 
0.002803 
0.002890 
0.002978 
0.003068 
0.003159 
0.003252 
0.003346 
0.003441 
0.003538 
0.003636 
0.003736 
0.003837 
0.003938 
0.004042 
0.004146 
0.004251 
0.004358 
0.004465 
0.004574 
0.004683 
0.004793 
0.004905 
0.005017 
0.005129 
0.005243 
0.005357 
0.005471 
0.005587 
0.005702 
0.005818 
0.005935 
0.006052 
0.006169 
0.006286 
0.006404 
0.006521 
0.006639 
0.006756 
0.006874 
0.006991 
0.007109 
0.007226 
0.007342 
0.007459 
0.007575 
0.007690 
0.007805 
0.007920 
0.008034 
0.008147 
0.008259 
0.008371 
0.008481 
0.008591 
0.008700 
0.008808 
0.008915 
0.009021 
0.009126 
0.009229 
0.009331 
0.009432 
0.009532 
0.009630 
0.009727 
0.009823 
0.009917 
0.010009 
0.010100 
0.010190 
0.010277 
0.010363 
0.010447 
0.010530 
0.010611 
0.010690 
0.010767 
0.010842 
0.010915 
0.010986 
0.011056 
0.011123 
0.011189 
0.011252 
0.011313 
0.011373 
0.011430 
0.011485 
0.011538 
0.011588 
0.011637 
0.011683 
0.011727 
0.011769 
0.011809 
0.011846 
0.011881 
0.011914 
0.011944 
0.011973 
0.011998 
0.012022 
0.012043 
0.012062 
0.012079 
0.012093 
0.012105 
0.012114 
0.012121 
0.012126 
0.012128 
0.000000 
0.000000 
0.000000 
0.000000 
0.000000 
0.000000 
0.000000 
0.000000 
0.000000 
0.000000 
0.000000 
0.000000 
0.000000 
0.000000 
0.000000 
0.000000 
0.000000 
0.000000 
0.000000 
0.000000 
0.000000 
0.000000 
0.000000 
0.000000 
0.000000 
0.000000 