# vtk DataFile Version 3.0
results.vtk
ASCII
DATASET RECTILINEAR_GRID
DIMENSIONS 301 301 1
X_COORDINATES 301 double
0.000000 0.003333 0.006667 0.010000 0.013333 0.016667 0.020000 0.023333 0.026667 0.030000 0.033333 0.036667 0.040000 0.043333 0.046667 0.050000 0.053333 0.056667 0.060000 0.063333 0.066667 0.070000 0.073333 0.076667 0.080000 0.083333 0.086667 0.090000 0.093333 0.096667 0.100000 0.103333 0.106667 0.110000 0.113333 0.116667 0.120000 0.123333 0.126667 0.130000 0.133333 0.136667 0.140000 0.143333 0.146667 0.150000 0.153333 0.156667 0.160000 0.163333 0.166667 0.170000 0.173333 0.176667 0.180000 0.183333 0.186667 0.190000 0.193333 0.196667 0.200000 0.203333 0.206667 0.210000 0.213333 0.216667 0.220000 0.223333 0.226667 0.230000 0.233333 0.236667 0.240000 0.243333 0.246667 0.250000 0.253333 0.256667 0.260000 0.263333 0.266667 0.270000 0.273333 0.276667 0.280000 0.283333 0.286667 0.290000 0.293333 0.296667 0.300000 0.303333 0.306667 0.310000 0.313333 0.316667 0.320000 0.323333 0.326667 0.330000 0.333333 0.336667 0.340000 0.343333 0.346667 0.350000 0.353333 0.356667 0.360000 0.363333 0.366667 0.370000 0.373333 0.376667 0.380000 0.383333 0.386667 0.390000 0.393333 0.396667 0.400000 0.403333 0.406667 0.410000 0.413333 0.416667 0.420000 0.423333 0.426667 0.430000 0.433333 0.436667 0.440000 0.443333 0.446667 0.450000 0.453333 0.456667 0.460000 0.463333 0.466667 0.470000 0.473333 0.476667 0.480000 0.483333 0.486667 0.490000 0.493333 0.496667 0.500000 0.503333 0.506667 0.510000 0.513333 0.516667 0.520000 0.523333 0.526667 0.530000 0.533333 0.536667 0.540000 0.543333 0.546667 0.550000 0.553333 0.556667 0.560000 0.563333 0.566667 0.570000 0.573333 0.576667 0.580000 0.583333 0.586667 0.590000 0.593333 0.596667 0.600000 0.603333 0.606667 0.610000 0.613333 0.616667 0.620000 0.623333 0.626667 0.630000 0.633333 0.636667 0.640000 0.643333 0.646667 0.650000 0.653333 0.656667 0.660000 0.663333 0.666667 0.670000 0.673333 0.676667 0.680000 0.683333 0.686667 0.690000 0.693333 0.696667 0.700000 0.703333 0.706667 0.710000 0.713333 0.716667 0.720000 0.723333 0.726667 0.730000 0.733333 0.736667 0.740000 0.743333 0.746667 0.750000 0.753333 0.756667 0.760000 0.763333 0.766667 0.770000 0.773333 0.776667 0.780000 0.783333 0.786667 0.790000 0.793333 0.796667 0.800000 0.803333 0.806667 0.810000 0.813333 0.816667 0.820000 0.823333 0.826667 0.830000 0.833333 0.836667 0.840000 0.843333 0.846667 0.850000 0.853333 0.856667 0.860000 0.863333 0.866667 0.870000 0.873333 0.876667 0.880000 0.883333 0.886667 0.890000 0.893333 0.896667 0.900000 0.903333 0.906667 0.910000 0.913333 0.916667 0.920000 0.923333 0.926667 0.930000 0.933333 0.936667 0.940000 0.943333 0.946667 0.950000 0.953333 0.956667 0.960000 0.963333 0.966667 0.970000 0.973333 0.976667 0.980000 0.983333 0.986667 0.990000 0.993333 0.996667 1.000000 
Y_COORDINATES 301 double
0.000000 0.003333 0.006667 0.010000 0.013333 0.016667 0.020000 0.023333 0.026667 0.030000 0.033333 0.036667 0.040000 0.043333 0.046667 0.050000 0.053333 0.056667 0.060000 0.063333 0.066667 0.070000 0.073333 0.076667 0.080000 0.083333 0.086667 0.090000 0.093333 0.096667 0.100000 0.103333 0.106667 0.110000 0.113333 0.116667 0.120000 0.123333 0.126667 0.130000 0.133333 0.136667 0.140000 0.143333 0.146667 0.150000 0.153333 0.156667 0.160000 0.163333 0.166667 0.170000 0.173333 0.176667 0.180000 0.183333 0.186667 0.190000 0.193333 0.196667 0.200000 0.203333 0.206667 0.210000 0.213333 0.216667 0.220000 0.223333 0.226667 0.230000 0.233333 0.236667 0.240000 0.243333 0.246667 0.250000 0.253333 0.256667 0.260000 0.263333 0.266667 0.270000 0.273333 0.276667 0.280000 0.283333 0.286667 0.290000 0.293333 0.296667 0.300000 0.303333 0.306667 0.310000 0.313333 0.316667 0.320000 0.323333 0.326667 0.330000 0.333333 0.336667 0.340000 0.343333 0.346667 0.350000 0.353333 0.356667 0.360000 0.363333 0.366667 0.370000 0.373333 0.376667 0.380000 0.383333 0.386667 0.390000 0.393333 0.396667 0.400000 0.403333 0.406667 0.410000 0.413333 0.416667 0.420000 0.423333 0.426667 0.430000 0.433333 0.436667 0.440000 0.443333 0.446667 0.450000 0.453333 0.456667 0.460000 0.463333 0.466667 0.470000 0.473333 0.476667 0.480000 0.483333 0.486667 0.490000 0.493333 0.496667 0.500000 0.503333 0.506667 0.510000 0.513333 0.516667 0.520000 0.523333 0.526667 0.530000 0.533333 0.536667 0.540000 0.543333 0.546667 0.550000 0.553333 0.556667 0.560000 0.563333 0.566667 0.570000 0.573333 0.576667 0.580000 0.583333 0.586667 0.590000 0.593333 0.596667 0.600000 0.603333 0.606667 0.610000 0.613333 0.616667 0.620000 0.623333 0.626667 0.630000 0.633333 0.636667 0.640000 0.643333 0.646667 0.650000 0.653333 0.656667 0.660000 0.663333 0.666667 0.670000 0.673333 0.676667 0.680000 0.683333 0.686667 0.690000 0.693333 0.696667 0.700000 0.703333 0.706667 0.710000 0.713333 0.716667 0.720000 0.723333 0.726667 0.730000 0.733333 0.736667 0.740000 0.743333 0.746667 0.750000 0.753333 0.756667 0.760000 0.763333 0.766667 0.770000 0.773333 0.776667 0.780000 0.783333 0.786667 0.790000 0.793333 0.796667 0.800000 0.803333 0.806667 0.810000 0.813333 0.816667 0.820000 0.823333 0.826667 0.830000 0.833333 0.836667 0.840000 0.843333 0.846667 0.850000 0.853333 0.856667 0.860000 0.863333 0.866667 0.870000 0.873333 0.876667 0.880000 0.883333 0.886667 0.890000 0.893333 0.896667 0.900000 0.903333 0.906667 0.910000 0.913333 0.916667 0.920000 0.923333 0.926667 0.930000 0.933333 0.936667 0.940000 0.943333 0.946667 0.950000 0.953333 0.956667 0.960000 0.963333 0.966667 0.970000 0.973333 0.976667 0.980000 0.983333 0.986667 0.990000 0.993333 0.996667 1.000000 
Z_COORDINATES 1 double
0
POINT_DATA 90601 
FIELD FieldData 1 
Concentração 1 90601 double 
0.000000 
0.000000 
0.000000 
0.000000 
0.000000 
0.000000 
0.000000 
0.000000 
0.000000 
0.000000 
0.000000 
0.000000 
0.000000 
0.000000 
0.000000 
0.000000 
0.000000 
0.000000 
0.000000 
0.000000 
0.000000 
0.000000 
0.000000 
0.000000 
0.000000 
0.000000 
0.000000 
0.000000 
0.000000 
0.000000 
0.000000 
0.000000 
0.000000 
0.000000 
0.000000 
0.000000 
0.000000 
0.000000 
0.000000 
0.000000 
0.000000 
0.000000 
0.000000 
0.000000 
0.000000 
0.000000 
0.000000 
0.000000 
0.000000 
0.000000 
0.000000 
0.000000 
0.000000 
0.000000 
0.000000 
0.000000 
0.000000 
0.000000 
0.000000 
0.000000 
0.000000 
0.000000 
0.000000 
0.000000 
0.000000 
0.000000 
0.000000 
0.000000 
0.000000 
0.000000 
0.000000 
0.000000 
0.000000 
0.000000 
0.000000 
0.000000 
0.000000 
0.000000 
0.000000 
0.000000 
0.000000 
0.000000 
0.000000 
0.000000 
0.000000 
0.000000 
0.000000 
0.000000 
0.000000 
0.000000 
0.000000 
0.000000 
0.000001 
0.000001 
0.000001 
0.000001 
0.000001 
0.000001 
0.000001 
0.000001 
0.000001 
0.000001 
0.000001 
0.000001 
0.000001 
0.000001 
0.000001 
0.000001 
0.000002 
0.000002 
0.000002 
0.000002 
0.000002 
0.000002 
0.000002 
0.000003 
0.000003 
0.000003 
0.000003 
0.000003 
0.000004 
0.000004 
0.000004 
0.000004 
0.000005 
0.000005 
0.000005 
0.000005 
0.000006 
0.000006 
0.000007 
0.000007 
0.000007 
0.000008 
0.000008 
0.000009 
0.000009 
0.000010 
0.000010 
0.000011 
0.000012 
0.000012 
0.000013 
0.000014 
0.000015 
0.000015 
0.000016 
0.000017 
0.000018 
0.000019 
0.000020 
0.000021 
0.000022 
0.000023 
0.000025 
0.000026 
0.000027 
0.000029 
0.000030 
0.000031 
0.000033 
0.000035 
0.000036 
0.000038 
0.000040 
0.000042 
0.000044 
0.000046 
0.000048 
0.000050 
0.000052 
0.000054 
0.000057 
0.000059 
0.000062 
0.000065 
0.000067 
0.000070 
0.000073 
0.000076 
0.000079 
0.000082 
0.000085 
0.000089 
0.000092 
0.000096 
0.000099 
0.000103 
0.000107 
0.000111 
0.000115 
0.000119 
0.000123 
0.000128 
0.000132 
0.000137 
0.000141 
0.000146 
0.000151 
0.000156 
0.000161 
0.000166 
0.000171 
0.000177 
0.000182 
0.000188 
0.000193 
0.000199 
0.000205 
0.000211 
0.000217 
0.000223 
0.000229 
0.000235 
0.000241 
0.000248 
0.000254 
0.000261 
0.000267 
0.000274 
0.000281 
0.000288 
0.000295 
0.000302 
0.000309 
0.000316 
0.000323 
0.000330 
0.000337 
0.000344 
0.000351 
0.000359 
0.000366 
0.000373 
0.000381 
0.000388 
0.000395 
0.000403 
0.000410 
0.000417 
0.000425 
0.000432 
0.000440 
0.000447 
0.000454 
0.000461 
0.000469 
0.000476 
0.000483 
0.000490 
0.000497 
0.000504 
0.000511 
0.000518 
0.000525 
0.000532 
0.000538 
0.000545 
0.000551 
0.000558 
0.000564 
0.000570 
0.000576 
0.000582 
0.000588 
0.000594 
0.000600 
0.000605 
0.000611 
0.000616 
0.000621 
0.000626 
0.000631 
0.000636 
0.000641 
0.000645 
0.000649 
0.000654 
0.000658 
0.000662 
0.000665 
0.000669 
0.000672 
0.000676 
0.000679 
0.000681 
0.000684 
0.000687 
0.000689 
0.000691 
0.000693 
0.000695 
0.000697 
0.000698 
0.000700 
0.000701 
0.000702 
0.000702 
0.000703 
0.000703 
0.000703 
0.000000 
0.000000 
0.000000 
0.000000 
0.000000 
0.000000 
0.000000 
0.000000 
0.000000 
0.000000 
0.000000 
0.000000 
0.000000 
0.000000 
0.000000 
0.000000 
0.000000 
0.000000 
0.000000 
0.000000 
0.000000 
0.000000 
0.000000 
0.000000 
0.000000 
0.000000 
0.000000 
0.000000 
0.000000 
0.000000 
0.000000 
0.000000 
0.000000 
0.000000 
0.000000 
0.000000 
0.000000 
0.000000 
0.000000 
0.000000 
0.000000 
0.000000 
0.000000 
0.000000 
0.000000 
0.000000 
0.000000 
0.000000 
0.000000 
0.000000 
0.000000 
0.000000 
0.000000 
0.000000 
0.000000 
0.000000 
0.000000 
0.000000 
0.000000 
0.000000 
0.000000 
0.000000 
0.000000 
0.000000 
0.000000 
0.000000 
0.000000 
0.000000 
0.000000 
0.000000 
0.000000 
0.000000 
0.000000 
0.000000 
0.000000 
0.000000 
0.000000 
0.000000 
0.000000 
0.000000 
0.000000 
0.000000 
0.000000 
0.000001 
0.000001 
0.000001 
0.000001 
0.000001 
0.000001 
0.000001 
0.000001 
0.000001 
0.000001 
0.000001 
0.000001 
0.000001 
0.000001 
0.000001 
0.000002 
0.000002 
0.000002 
0.000002 
0.000002 
0.000002 
0.000002 
0.000003 
0.000003 
0.000003 
0.000003 
0.000003 
0.000004 
0.000004 
0.000004 
0.000005 
0.000005 
0.000005 
0.000006 
0.000006 
0.000006 
0.000007 
0.000007 
0.000008 
0.000008 
0.000009 
0.000009 
0.000010 
0.000010 
0.000011 
0.000012 
0.000012 
0.000013 
0.000014 
0.000015 
0.000016 
0.000017 
0.000018 
0.000019 
0.000020 
0.000021 
0.000022 
0.000024 
0.000025 
0.000026 
0.000028 
0.000029 
0.000031 
0.000033 
0.000035 
0.000036 
0.000038 
0.000040 
0.000043 
0.000045 
0.000047 
0.000050 
0.000052 
0.000055 
0.000057 
0.000060 
0.000063 
0.000066 
0.000070 
0.000073 
0.000076 
0.000080 
0.000084 
0.000088 
0.000092 
0.000096 
0.000100 
0.000105 
0.000109 
0.000114 
0.000119 
0.000124 
0.000130 
0.000135 
0.000141 
0.000147 
0.000153 
0.000159 
0.000165 
0.000172 
0.000178 
0.000185 
0.000192 
0.000200 
0.000207 
0.000215 
0.000223 
0.000231 
0.000239 
0.000248 
0.000256 
0.000265 
0.000274 
0.000284 
0.000293 
0.000303 
0.000313 
0.000323 
0.000333 
0.000344 
0.000355 
0.000365 
0.000377 
0.000388 
0.000399 
0.000411 
0.000423 
0.000435 
0.000447 
0.000459 
0.000472 
0.000484 
0.000497 
0.000510 
0.000523 
0.000537 
0.000550 
0.000564 
0.000577 
0.000591 
0.000605 
0.000619 
0.000633 
0.000647 
0.000662 
0.000676 
0.000690 
0.000705 
0.000719 
0.000734 
0.000749 
0.000763 
0.000778 
0.000793 
0.000808 
0.000822 
0.000837 
0.000852 
0.000867 
0.000881 
0.000896 
0.000911 
0.000925 
0.000940 
0.000954 
0.000968 
0.000983 
0.000997 
0.001011 
0.001025 
0.001038 
0.001052 
0.001065 
0.001079 
0.001092 
0.001105 
0.001118 
0.001130 
0.001143 
0.001155 
0.001167 
0.001179 
0.001191 
0.001202 
0.001213 
0.001224 
0.001235 
0.001245 
0.001255 
0.001265 
0.001275 
0.001284 
0.001293 
0.001301 
0.001310 
0.001318 
0.001326 
0.001333 
0.001340 
0.001347 
0.001354 
0.001360 
0.001365 
0.001371 
0.001376 
0.001381 
0.001385 
0.001389 
0.001393 
0.001396 
0.001399 
0.001402 
0.001404 
0.001406 
0.001407 
0.001408 
0.001409 
0.001409 
0.000000 
0.000000 
0.000000 
0.000000 
0.000000 
0.000000 
0.000000 
0.000000 
0.000000 
0.000000 
0.000000 
0.000000 
0.000000 
0.000000 
0.000000 
0.000000 
0.000000 
0.000000 
0.000000 
0.000000 
0.000000 
0.000000 
0.000000 
0.000000 
0.000000 
0.000000 
0.000000 
0.000000 
0.000000 
0.000000 
0.000000 
0.000000 
0.000000 
0.000000 
0.000000 
0.000000 
0.000000 
0.000000 
0.000000 
0.000000 
0.000000 
0.000000 
0.000000 
0.000000 
0.000000 
0.000000 
0.000000 
0.000000 
0.000000 
0.000000 
0.000000 
0.000000 
0.000000 
0.000000 
0.000000 
0.000000 
0.000000 
0.000000 
0.000000 
0.000000 
0.000000 
0.000000 
0.000000 
0.000000 
0.000000 
0.000000 
0.000000 
0.000000 
0.000000 
0.000000 
0.000000 
0.000000 
0.000000 
0.000000 
0.000000 
0.000000 
0.000000 
0.000000 
0.000001 
0.000001 
0.000001 
0.000001 
0.000001 
0.000001 
0.000001 
0.000001 
0.000001 
0.000001 
0.000001 
0.000001 
0.000001 
0.000001 
0.000002 
0.000002 
0.000002 
0.000002 
0.000002 
0.000002 
0.000002 
0.000003 
0.000003 
0.000003 
0.000003 
0.000003 
0.000004 
0.000004 
0.000004 
0.000005 
0.000005 
0.000005 
0.000006 
0.000006 
0.000006 
0.000007 
0.000007 
0.000008 
0.000008 
0.000009 
0.000009 
0.000010 
0.000011 
0.000012 
0.000012 
0.000013 
0.000014 
0.000015 
0.000016 
0.000017 
0.000018 
0.000019 
0.000020 
0.000021 
0.000023 
0.000024 
0.000025 
0.000027 
0.000028 
0.000030 
0.000032 
0.000034 
0.000036 
0.000038 
0.000040 
0.000042 
0.000044 
0.000047 
0.000050 
0.000052 
0.000055 
0.000058 
0.000061 
0.000064 
0.000068 
0.000071 
0.000075 
0.000079 
0.000083 
0.000087 
0.000091 
0.000096 
0.000100 
0.000105 
0.000110 
0.000116 
0.000121 
0.000127 
0.000133 
0.000139 
0.000145 
0.000152 
0.000158 
0.000165 
0.000173 
0.000180 
0.000188 
0.000196 
0.000204 
0.000213 
0.000221 
0.000230 
0.000240 
0.000249 
0.000259 
0.000269 
0.000280 
0.000291 
0.000302 
0.000313 
0.000325 
0.000337 
0.000349 
0.000361 
0.000374 
0.000387 
0.000401 
0.000414 
0.000428 
0.000443 
0.000457 
0.000472 
0.000488 
0.000503 
0.000519 
0.000535 
0.000551 
0.000568 
0.000585 
0.000602 
0.000620 
0.000638 
0.000656 
0.000674 
0.000693 
0.000712 
0.000731 
0.000750 
0.000770 
0.000789 
0.000809 
0.000829 
0.000850 
0.000870 
0.000891 
0.000912 
0.000933 
0.000954 
0.000976 
0.000997 
0.001019 
0.001041 
0.001062 
0.001084 
0.001106 
0.001128 
0.001151 
0.001173 
0.001195 
0.001217 
0.001239 
0.001261 
0.001284 
0.001306 
0.001328 
0.001350 
0.001372 
0.001394 
0.001415 
0.001437 
0.001458 
0.001480 
0.001501 
0.001522 
0.001543 
0.001564 
0.001584 
0.001604 
0.001624 
0.001644 
0.001664 
0.001683 
0.001702 
0.001721 
0.001739 
0.001757 
0.001775 
0.001792 
0.001809 
0.001826 
0.001842 
0.001858 
0.001874 
0.001889 
0.001904 
0.001918 
0.001932 
0.001946 
0.001959 
0.001971 
0.001983 
0.001995 
0.002006 
0.002017 
0.002027 
0.002037 
0.002046 
0.002054 
0.002063 
0.002070 
0.002077 
0.002084 
0.002090 
0.002096 
0.002101 
0.002105 
0.002109 
0.002112 
0.002115 
0.002117 
0.002119 
0.002120 
0.002120 
0.000000 
0.000000 
0.000000 
0.000000 
0.000000 
0.000000 
0.000000 
0.000000 
0.000000 
0.000000 
0.000000 
0.000000 
0.000000 
0.000000 
0.000000 
0.000000 
0.000000 
0.000000 
0.000000 
0.000000 
0.000000 
0.000000 
0.000000 
0.000000 
0.000000 
0.000000 
0.000000 
0.000000 
0.000000 
0.000000 
0.000000 
0.000000 
0.000000 
0.000000 
0.000000 
0.000000 
0.000000 
0.000000 
0.000000 
0.000000 
0.000000 
0.000000 
0.000000 
0.000000 
0.000000 
0.000000 
0.000000 
0.000000 
0.000000 
0.000000 
0.000000 
0.000000 
0.000000 
0.000000 
0.000000 
0.000000 
0.000000 
0.000000 
0.000000 
0.000000 
0.000000 
0.000000 
0.000000 
0.000000 
0.000000 
0.000000 
0.000000 
0.000000 
0.000000 
0.000000 
0.000000 
0.000000 
0.000000 
0.000000 
0.000001 
0.000001 
0.000001 
0.000001 
0.000001 
0.000001 
0.000001 
0.000001 
0.000001 
0.000001 
0.000001 
0.000001 
0.000001 
0.000001 
0.000002 
0.000002 
0.000002 
0.000002 
0.000002 
0.000002 
0.000002 
0.000003 
0.000003 
0.000003 
0.000003 
0.000003 
0.000004 
0.000004 
0.000004 
0.000005 
0.000005 
0.000005 
0.000006 
0.000006 
0.000007 
0.000007 
0.000008 
0.000008 
0.000009 
0.000009 
0.000010 
0.000011 
0.000011 
0.000012 
0.000013 
0.000014 
0.000015 
0.000016 
0.000017 
0.000018 
0.000019 
0.000020 
0.000021 
0.000023 
0.000024 
0.000025 
0.000027 
0.000029 
0.000030 
0.000032 
0.000034 
0.000036 
0.000038 
0.000041 
0.000043 
0.000046 
0.000048 
0.000051 
0.000054 
0.000057 
0.000060 
0.000063 
0.000067 
0.000070 
0.000074 
0.000078 
0.000082 
0.000087 
0.000091 
0.000096 
0.000101 
0.000106 
0.000111 
0.000117 
0.000123 
0.000129 
0.000135 
0.000142 
0.000149 
0.000156 
0.000163 
0.000171 
0.000179 
0.000187 
0.000195 
0.000204 
0.000213 
0.000223 
0.000232 
0.000243 
0.000253 
0.000264 
0.000275 
0.000286 
0.000298 
0.000310 
0.000323 
0.000336 
0.000349 
0.000363 
0.000377 
0.000391 
0.000406 
0.000421 
0.000437 
0.000453 
0.000469 
0.000486 
0.000503 
0.000521 
0.000539 
0.000557 
0.000576 
0.000596 
0.000615 
0.000635 
0.000656 
0.000677 
0.000698 
0.000720 
0.000742 
0.000764 
0.000787 
0.000810 
0.000833 
0.000857 
0.000882 
0.000906 
0.000931 
0.000956 
0.000982 
0.001008 
0.001034 
0.001060 
0.001087 
0.001114 
0.001142 
0.001169 
0.001197 
0.001225 
0.001253 
0.001282 
0.001310 
0.001339 
0.001368 
0.001397 
0.001426 
0.001456 
0.001485 
0.001514 
0.001544 
0.001574 
0.001603 
0.001633 
0.001663 
0.001692 
0.001722 
0.001751 
0.001781 
0.001810 
0.001840 
0.001869 
0.001898 
0.001927 
0.001956 
0.001984 
0.002013 
0.002041 
0.002069 
0.002096 
0.002124 
0.002151 
0.002177 
0.002204 
0.002230 
0.002256 
0.002281 
0.002306 
0.002330 
0.002355 
0.002378 
0.002401 
0.002424 
0.002447 
0.002468 
0.002490 
0.002510 
0.002531 
0.002550 
0.002569 
0.002588 
0.002606 
0.002623 
0.002640 
0.002656 
0.002672 
0.002687 
0.002701 
0.002714 
0.002727 
0.002740 
0.002751 
0.002762 
0.002772 
0.002782 
0.002791 
0.002799 
0.002806 
0.002813 
0.002819 
0.002824 
0.002828 
0.002832 
0.002835 
0.002837 
0.002839 
0.002839 
0.000000 
0.000000 
0.000000 
0.000000 
0.000000 
0.000000 
0.000000 
0.000000 
0.000000 
0.000000 
0.000000 
0.000000 
0.000000 
0.000000 
0.000000 
0.000000 
0.000000 
0.000000 
0.000000 
0.000000 
0.000000 
0.000000 
0.000000 
0.000000 
0.000000 
0.000000 
0.000000 
0.000000 
0.000000 
0.000000 
0.000000 
0.000000 
0.000000 
0.000000 
0.000000 
0.000000 
0.000000 
0.000000 
0.000000 
0.000000 
0.000000 
0.000000 
0.000000 
0.000000 
0.000000 
0.000000 
0.000000 
0.000000 
0.000000 
0.000000 
0.000000 
0.000000 
0.000000 
0.000000 
0.000000 
0.000000 
0.000000 
0.000000 
0.000000 
0.000000 
0.000000 
0.000000 
0.000000 
0.000000 
0.000000 
0.000000 
0.000000 
0.000000 
0.000000 
0.000000 
0.000000 
0.000001 
0.000001 
0.000001 
0.000001 
0.000001 
0.000001 
0.000001 
0.000001 
0.000001 
0.000001 
0.000001 
0.000001 
0.000001 
0.000001 
0.000002 
0.000002 
0.000002 
0.000002 
0.000002 
0.000002 
0.000002 
0.000003 
0.000003 
0.000003 
0.000003 
0.000004 
0.000004 
0.000004 
0.000004 
0.000005 
0.000005 
0.000006 
0.000006 
0.000006 
0.000007 
0.000007 
0.000008 
0.000008 
0.000009 
0.000010 
0.000010 
0.000011 
0.000012 
0.000013 
0.000013 
0.000014 
0.000015 
0.000016 
0.000017 
0.000018 
0.000020 
0.000021 
0.000022 
0.000024 
0.000025 
0.000027 
0.000029 
0.000030 
0.000032 
0.000034 
0.000036 
0.000039 
0.000041 
0.000043 
0.000046 
0.000049 
0.000052 
0.000055 
0.000058 
0.000061 
0.000065 
0.000068 
0.000072 
0.000076 
0.000080 
0.000085 
0.000089 
0.000094 
0.000099 
0.000104 
0.000110 
0.000116 
0.000122 
0.000128 
0.000135 
0.000141 
0.000148 
0.000156 
0.000163 
0.000171 
0.000180 
0.000188 
0.000197 
0.000207 
0.000216 
0.000226 
0.000237 
0.000247 
0.000259 
0.000270 
0.000282 
0.000294 
0.000307 
0.000320 
0.000334 
0.000348 
0.000362 
0.000377 
0.000393 
0.000409 
0.000425 
0.000442 
0.000459 
0.000477 
0.000495 
0.000514 
0.000533 
0.000553 
0.000573 
0.000594 
0.000615 
0.000637 
0.000659 
0.000682 
0.000705 
0.000729 
0.000753 
0.000778 
0.000803 
0.000829 
0.000855 
0.000882 
0.000909 
0.000937 
0.000965 
0.000994 
0.001023 
0.001053 
0.001083 
0.001113 
0.001144 
0.001176 
0.001207 
0.001240 
0.001272 
0.001305 
0.001338 
0.001372 
0.001406 
0.001440 
0.001475 
0.001510 
0.001545 
0.001581 
0.001616 
0.001652 
0.001689 
0.001725 
0.001761 
0.001798 
0.001835 
0.001872 
0.001909 
0.001946 
0.001983 
0.002021 
0.002058 
0.002095 
0.002132 
0.002169 
0.002206 
0.002244 
0.002280 
0.002317 
0.002354 
0.002390 
0.002426 
0.002463 
0.002498 
0.002534 
0.002569 
0.002604 
0.002639 
0.002673 
0.002707 
0.002740 
0.002773 
0.002806 
0.002838 
0.002870 
0.002901 
0.002932 
0.002962 
0.002992 
0.003021 
0.003049 
0.003077 
0.003105 
0.003131 
0.003157 
0.003182 
0.003207 
0.003231 
0.003254 
0.003277 
0.003298 
0.003319 
0.003340 
0.003359 
0.003378 
0.003395 
0.003412 
0.003429 
0.003444 
0.003458 
0.003472 
0.003485 
0.003497 
0.003508 
0.003518 
0.003527 
0.003535 
0.003542 
0.003549 
0.003554 
0.003559 
0.003563 
0.003566 
0.003567 
0.003568 
0.000000 
0.000000 
0.000000 
0.000000 
0.000000 
0.000000 
0.000000 
0.000000 
0.000000 
0.000000 
0.000000 
0.000000 
0.000000 
0.000000 
0.000000 
0.000000 
0.000000 
0.000000 
0.000000 
0.000000 
0.000000 
0.000000 
0.000000 
0.000000 
0.000000 
0.000000 
0.000000 
0.000000 
0.000000 
0.000000 
0.000000 
0.000000 
0.000000 
0.000000 
0.000000 
0.000000 
0.000000 
0.000000 
0.000000 
0.000000 
0.000000 
0.000000 
0.000000 
0.000000 
0.000000 
0.000000 
0.000000 
0.000000 
0.000000 
0.000000 
0.000000 
0.000000 
0.000000 
0.000000 
0.000000 
0.000000 
0.000000 
0.000000 
0.000000 
0.000000 
0.000000 
0.000000 
0.000000 
0.000000 
0.000000 
0.000000 
0.000000 
0.000000 
0.000000 
0.000001 
0.000001 
0.000001 
0.000001 
0.000001 
0.000001 
0.000001 
0.000001 
0.000001 
0.000001 
0.000001 
0.000001 
0.000001 
0.000002 
0.000002 
0.000002 
0.000002 
0.000002 
0.000002 
0.000002 
0.000003 
0.000003 
0.000003 
0.000003 
0.000004 
0.000004 
0.000004 
0.000004 
0.000005 
0.000005 
0.000005 
0.000006 
0.000006 
0.000007 
0.000007 
0.000008 
0.000008 
0.000009 
0.000010 
0.000010 
0.000011 
0.000012 
0.000013 
0.000013 
0.000014 
0.000015 
0.000016 
0.000017 
0.000019 
0.000020 
0.000021 
0.000023 
0.000024 
0.000026 
0.000027 
0.000029 
0.000031 
0.000033 
0.000035 
0.000037 
0.000039 
0.000042 
0.000044 
0.000047 
0.000050 
0.000053 
0.000056 
0.000060 
0.000063 
0.000067 
0.000071 
0.000075 
0.000079 
0.000083 
0.000088 
0.000093 
0.000098 
0.000103 
0.000109 
0.000115 
0.000121 
0.000128 
0.000134 
0.000141 
0.000149 
0.000156 
0.000164 
0.000172 
0.000181 
0.000190 
0.000199 
0.000209 
0.000219 
0.000230 
0.000241 
0.000252 
0.000264 
0.000276 
0.000289 
0.000302 
0.000315 
0.000329 
0.000344 
0.000359 
0.000374 
0.000391 
0.000407 
0.000424 
0.000442 
0.000460 
0.000479 
0.000498 
0.000518 
0.000538 
0.000559 
0.000581 
0.000603 
0.000626 
0.000649 
0.000673 
0.000698 
0.000723 
0.000748 
0.000775 
0.000802 
0.000829 
0.000858 
0.000887 
0.000916 
0.000946 
0.000977 
0.001008 
0.001040 
0.001072 
0.001105 
0.001139 
0.001173 
0.001208 
0.001243 
0.001279 
0.001316 
0.001353 
0.001390 
0.001428 
0.001467 
0.001505 
0.001545 
0.001585 
0.001625 
0.001666 
0.001707 
0.001748 
0.001790 
0.001833 
0.001875 
0.001918 
0.001961 
0.002005 
0.002048 
0.002092 
0.002136 
0.002181 
0.002225 
0.002270 
0.002314 
0.002359 
0.002404 
0.002449 
0.002494 
0.002539 
0.002583 
0.002628 
0.002673 
0.002718 
0.002762 
0.002806 
0.002850 
0.002894 
0.002938 
0.002981 
0.003024 
0.003067 
0.003110 
0.003152 
0.003193 
0.003235 
0.003275 
0.003316 
0.003355 
0.003395 
0.003433 
0.003472 
0.003509 
0.003546 
0.003582 
0.003618 
0.003653 
0.003687 
0.003721 
0.003754 
0.003786 
0.003817 
0.003847 
0.003877 
0.003906 
0.003933 
0.003960 
0.003986 
0.004012 
0.004036 
0.004059 
0.004082 
0.004103 
0.004123 
0.004143 
0.004161 
0.004178 
0.004195 
0.004210 
0.004224 
0.004237 
0.004250 
0.004261 
0.004271 
0.004279 
0.004287 
0.004294 
0.004299 
0.004304 
0.004307 
0.004309 
0.004311 
0.000000 
0.000000 
0.000000 
0.000000 
0.000000 
0.000000 
0.000000 
0.000000 
0.000000 
0.000000 
0.000000 
0.000000 
0.000000 
0.000000 
0.000000 
0.000000 
0.000000 
0.000000 
0.000000 
0.000000 
0.000000 
0.000000 
0.000000 
0.000000 
0.000000 
0.000000 
0.000000 
0.000000 
0.000000 
0.000000 
0.000000 
0.000000 
0.000000 
0.000000 
0.000000 
0.000000 
0.000000 
0.000000 
0.000000 
0.000000 
0.000000 
0.000000 
0.000000 
0.000000 
0.000000 
0.000000 
0.000000 
0.000000 
0.000000 
0.000000 
0.000000 
0.000000 
0.000000 
0.000000 
0.000000 
0.000000 
0.000000 
0.000000 
0.000000 
0.000000 
0.000000 
0.000000 
0.000000 
0.000000 
0.000000 
0.000000 
0.000000 
0.000001 
0.000001 
0.000001 
0.000001 
0.000001 
0.000001 
0.000001 
0.000001 
0.000001 
0.000001 
0.000001 
0.000001 
0.000001 
0.000002 
0.000002 
0.000002 
0.000002 
0.000002 
0.000002 
0.000002 
0.000003 
0.000003 
0.000003 
0.000003 
0.000004 
0.000004 
0.000004 
0.000005 
0.000005 
0.000005 
0.000006 
0.000006 
0.000006 
0.000007 
0.000007 
0.000008 
0.000009 
0.000009 
0.000010 
0.000011 
0.000011 
0.000012 
0.000013 
0.000014 
0.000015 
0.000016 
0.000017 
0.000018 
0.000020 
0.000021 
0.000022 
0.000024 
0.000025 
0.000027 
0.000029 
0.000031 
0.000033 
0.000035 
0.000037 
0.000039 
0.000042 
0.000044 
0.000047 
0.000050 
0.000053 
0.000056 
0.000060 
0.000063 
0.000067 
0.000071 
0.000075 
0.000079 
0.000084 
0.000089 
0.000094 
0.000099 
0.000105 
0.000111 
0.000117 
0.000123 
0.000130 
0.000137 
0.000144 
0.000152 
0.000160 
0.000168 
0.000177 
0.000186 
0.000195 
0.000205 
0.000216 
0.000226 
0.000237 
0.000249 
0.000261 
0.000273 
0.000286 
0.000300 
0.000314 
0.000328 
0.000343 
0.000359 
0.000375 
0.000392 
0.000409 
0.000427 
0.000445 
0.000464 
0.000484 
0.000504 
0.000525 
0.000546 
0.000568 
0.000591 
0.000615 
0.000639 
0.000664 
0.000689 
0.000716 
0.000743 
0.000770 
0.000799 
0.000828 
0.000857 
0.000888 
0.000919 
0.000951 
0.000984 
0.001017 
0.001051 
0.001086 
0.001121 
0.001158 
0.001195 
0.001232 
0.001271 
0.001310 
0.001349 
0.001390 
0.001431 
0.001472 
0.001515 
0.001558 
0.001601 
0.001645 
0.001690 
0.001735 
0.001781 
0.001828 
0.001875 
0.001922 
0.001970 
0.002018 
0.002067 
0.002117 
0.002166 
0.002216 
0.002267 
0.002317 
0.002368 
0.002420 
0.002471 
0.002523 
0.002575 
0.002627 
0.002680 
0.002732 
0.002785 
0.002838 
0.002890 
0.002943 
0.002996 
0.003048 
0.003101 
0.003153 
0.003205 
0.003258 
0.003310 
0.003361 
0.003413 
0.003464 
0.003515 
0.003565 
0.003615 
0.003665 
0.003714 
0.003763 
0.003811 
0.003859 
0.003906 
0.003952 
0.003998 
0.004044 
0.004088 
0.004132 
0.004175 
0.004218 
0.004260 
0.004300 
0.004340 
0.004380 
0.004418 
0.004455 
0.004492 
0.004527 
0.004562 
0.004595 
0.004628 
0.004660 
0.004690 
0.004719 
0.004748 
0.004775 
0.004801 
0.004826 
0.004850 
0.004872 
0.004894 
0.004914 
0.004933 
0.004951 
0.004968 
0.004983 
0.004997 
0.005010 
0.005022 
0.005032 
0.005041 
0.005049 
0.005055 
0.005060 
0.005064 
0.005067 
0.005068 
0.000000 
0.000000 
0.000000 
0.000000 
0.000000 
0.000000 
0.000000 
0.000000 
0.000000 
0.000000 
0.000000 
0.000000 
0.000000 
0.000000 
0.000000 
0.000000 
0.000000 
0.000000 
0.000000 
0.000000 
0.000000 
0.000000 
0.000000 
0.000000 
0.000000 
0.000000 
0.000000 
0.000000 
0.000000 
0.000000 
0.000000 
0.000000 
0.000000 
0.000000 
0.000000 
0.000000 
0.000000 
0.000000 
0.000000 
0.000000 
0.000000 
0.000000 
0.000000 
0.000000 
0.000000 
0.000000 
0.000000 
0.000000 
0.000000 
0.000000 
0.000000 
0.000000 
0.000000 
0.000000 
0.000000 
0.000000 
0.000000 
0.000000 
0.000000 
0.000000 
0.000000 
0.000000 
0.000000 
0.000000 
0.000000 
0.000001 
0.000001 
0.000001 
0.000001 
0.000001 
0.000001 
0.000001 
0.000001 
0.000001 
0.000001 
0.000001 
0.000001 
0.000001 
0.000002 
0.000002 
0.000002 
0.000002 
0.000002 
0.000002 
0.000002 
0.000003 
0.000003 
0.000003 
0.000003 
0.000004 
0.000004 
0.000004 
0.000005 
0.000005 
0.000005 
0.000006 
0.000006 
0.000007 
0.000007 
0.000008 
0.000008 
0.000009 
0.000009 
0.000010 
0.000011 
0.000012 
0.000012 
0.000013 
0.000014 
0.000015 
0.000016 
0.000018 
0.000019 
0.000020 
0.000021 
0.000023 
0.000024 
0.000026 
0.000028 
0.000030 
0.000032 
0.000034 
0.000036 
0.000038 
0.000041 
0.000043 
0.000046 
0.000049 
0.000052 
0.000055 
0.000058 
0.000062 
0.000066 
0.000070 
0.000074 
0.000078 
0.000083 
0.000088 
0.000093 
0.000098 
0.000104 
0.000110 
0.000116 
0.000123 
0.000129 
0.000137 
0.000144 
0.000152 
0.000160 
0.000169 
0.000178 
0.000187 
0.000197 
0.000207 
0.000217 
0.000228 
0.000240 
0.000252 
0.000264 
0.000277 
0.000291 
0.000305 
0.000319 
0.000335 
0.000350 
0.000367 
0.000383 
0.000401 
0.000419 
0.000438 
0.000457 
0.000477 
0.000498 
0.000519 
0.000542 
0.000564 
0.000588 
0.000612 
0.000637 
0.000663 
0.000690 
0.000717 
0.000745 
0.000774 
0.000804 
0.000834 
0.000865 
0.000898 
0.000930 
0.000964 
0.000999 
0.001034 
0.001070 
0.001107 
0.001145 
0.001184 
0.001224 
0.001264 
0.001305 
0.001347 
0.001390 
0.001433 
0.001478 
0.001523 
0.001569 
0.001616 
0.001663 
0.001711 
0.001760 
0.001810 
0.001860 
0.001911 
0.001963 
0.002016 
0.002069 
0.002122 
0.002176 
0.002231 
0.002287 
0.002342 
0.002399 
0.002456 
0.002513 
0.002571 
0.002629 
0.002687 
0.002746 
0.002805 
0.002865 
0.002925 
0.002984 
0.003045 
0.003105 
0.003165 
0.003226 
0.003286 
0.003347 
0.003408 
0.003468 
0.003529 
0.003589 
0.003649 
0.003710 
0.003769 
0.003829 
0.003888 
0.003948 
0.004006 
0.004065 
0.004122 
0.004180 
0.004237 
0.004293 
0.004349 
0.004405 
0.004459 
0.004514 
0.004567 
0.004620 
0.004672 
0.004723 
0.004773 
0.004823 
0.004871 
0.004919 
0.004966 
0.005012 
0.005056 
0.005100 
0.005143 
0.005185 
0.005225 
0.005265 
0.005303 
0.005341 
0.005377 
0.005412 
0.005445 
0.005478 
0.005509 
0.005539 
0.005567 
0.005594 
0.005620 
0.005645 
0.005668 
0.005690 
0.005710 
0.005729 
0.005747 
0.005763 
0.005778 
0.005791 
0.005803 
0.005813 
0.005822 
0.005829 
0.005835 
0.005840 
0.005843 
0.005844 
0.000000 
0.000000 
0.000000 
0.000000 
0.000000 
0.000000 
0.000000 
0.000000 
0.000000 
0.000000 
0.000000 
0.000000 
0.000000 
0.000000 
0.000000 
0.000000 
0.000000 
0.000000 
0.000000 
0.000000 
0.000000 
0.000000 
0.000000 
0.000000 
0.000000 
0.000000 