# vtk DataFile Version 3.0
results.vtk
ASCII
DATASET RECTILINEAR_GRID
DIMENSIONS 301 301 1
X_COORDINATES 301 double
0.000000 0.003333 0.006667 0.010000 0.013333 0.016667 0.020000 0.023333 0.026667 0.030000 0.033333 0.036667 0.040000 0.043333 0.046667 0.050000 0.053333 0.056667 0.060000 0.063333 0.066667 0.070000 0.073333 0.076667 0.080000 0.083333 0.086667 0.090000 0.093333 0.096667 0.100000 0.103333 0.106667 0.110000 0.113333 0.116667 0.120000 0.123333 0.126667 0.130000 0.133333 0.136667 0.140000 0.143333 0.146667 0.150000 0.153333 0.156667 0.160000 0.163333 0.166667 0.170000 0.173333 0.176667 0.180000 0.183333 0.186667 0.190000 0.193333 0.196667 0.200000 0.203333 0.206667 0.210000 0.213333 0.216667 0.220000 0.223333 0.226667 0.230000 0.233333 0.236667 0.240000 0.243333 0.246667 0.250000 0.253333 0.256667 0.260000 0.263333 0.266667 0.270000 0.273333 0.276667 0.280000 0.283333 0.286667 0.290000 0.293333 0.296667 0.300000 0.303333 0.306667 0.310000 0.313333 0.316667 0.320000 0.323333 0.326667 0.330000 0.333333 0.336667 0.340000 0.343333 0.346667 0.350000 0.353333 0.356667 0.360000 0.363333 0.366667 0.370000 0.373333 0.376667 0.380000 0.383333 0.386667 0.390000 0.393333 0.396667 0.400000 0.403333 0.406667 0.410000 0.413333 0.416667 0.420000 0.423333 0.426667 0.430000 0.433333 0.436667 0.440000 0.443333 0.446667 0.450000 0.453333 0.456667 0.460000 0.463333 0.466667 0.470000 0.473333 0.476667 0.480000 0.483333 0.486667 0.490000 0.493333 0.496667 0.500000 0.503333 0.506667 0.510000 0.513333 0.516667 0.520000 0.523333 0.526667 0.530000 0.533333 0.536667 0.540000 0.543333 0.546667 0.550000 0.553333 0.556667 0.560000 0.563333 0.566667 0.570000 0.573333 0.576667 0.580000 0.583333 0.586667 0.590000 0.593333 0.596667 0.600000 0.603333 0.606667 0.610000 0.613333 0.616667 0.620000 0.623333 0.626667 0.630000 0.633333 0.636667 0.640000 0.643333 0.646667 0.650000 0.653333 0.656667 0.660000 0.663333 0.666667 0.670000 0.673333 0.676667 0.680000 0.683333 0.686667 0.690000 0.693333 0.696667 0.700000 0.703333 0.706667 0.710000 0.713333 0.716667 0.720000 0.723333 0.726667 0.730000 0.733333 0.736667 0.740000 0.743333 0.746667 0.750000 0.753333 0.756667 0.760000 0.763333 0.766667 0.770000 0.773333 0.776667 0.780000 0.783333 0.786667 0.790000 0.793333 0.796667 0.800000 0.803333 0.806667 0.810000 0.813333 0.816667 0.820000 0.823333 0.826667 0.830000 0.833333 0.836667 0.840000 0.843333 0.846667 0.850000 0.853333 0.856667 0.860000 0.863333 0.866667 0.870000 0.873333 0.876667 0.880000 0.883333 0.886667 0.890000 0.893333 0.896667 0.900000 0.903333 0.906667 0.910000 0.913333 0.916667 0.920000 0.923333 0.926667 0.930000 0.933333 0.936667 0.940000 0.943333 0.946667 0.950000 0.953333 0.956667 0.960000 0.963333 0.966667 0.970000 0.973333 0.976667 0.980000 0.983333 0.986667 0.990000 0.993333 0.996667 1.000000 
Y_COORDINATES 301 double
0.000000 0.003333 0.006667 0.010000 0.013333 0.016667 0.020000 0.023333 0.026667 0.030000 0.033333 0.036667 0.040000 0.043333 0.046667 0.050000 0.053333 0.056667 0.060000 0.063333 0.066667 0.070000 0.073333 0.076667 0.080000 0.083333 0.086667 0.090000 0.093333 0.096667 0.100000 0.103333 0.106667 0.110000 0.113333 0.116667 0.120000 0.123333 0.126667 0.130000 0.133333 0.136667 0.140000 0.143333 0.146667 0.150000 0.153333 0.156667 0.160000 0.163333 0.166667 0.170000 0.173333 0.176667 0.180000 0.183333 0.186667 0.190000 0.193333 0.196667 0.200000 0.203333 0.206667 0.210000 0.213333 0.216667 0.220000 0.223333 0.226667 0.230000 0.233333 0.236667 0.240000 0.243333 0.246667 0.250000 0.253333 0.256667 0.260000 0.263333 0.266667 0.270000 0.273333 0.276667 0.280000 0.283333 0.286667 0.290000 0.293333 0.296667 0.300000 0.303333 0.306667 0.310000 0.313333 0.316667 0.320000 0.323333 0.326667 0.330000 0.333333 0.336667 0.340000 0.343333 0.346667 0.350000 0.353333 0.356667 0.360000 0.363333 0.366667 0.370000 0.373333 0.376667 0.380000 0.383333 0.386667 0.390000 0.393333 0.396667 0.400000 0.403333 0.406667 0.410000 0.413333 0.416667 0.420000 0.423333 0.426667 0.430000 0.433333 0.436667 0.440000 0.443333 0.446667 0.450000 0.453333 0.456667 0.460000 0.463333 0.466667 0.470000 0.473333 0.476667 0.480000 0.483333 0.486667 0.490000 0.493333 0.496667 0.500000 0.503333 0.506667 0.510000 0.513333 0.516667 0.520000 0.523333 0.526667 0.530000 0.533333 0.536667 0.540000 0.543333 0.546667 0.550000 0.553333 0.556667 0.560000 0.563333 0.566667 0.570000 0.573333 0.576667 0.580000 0.583333 0.586667 0.590000 0.593333 0.596667 0.600000 0.603333 0.606667 0.610000 0.613333 0.616667 0.620000 0.623333 0.626667 0.630000 0.633333 0.636667 0.640000 0.643333 0.646667 0.650000 0.653333 0.656667 0.660000 0.663333 0.666667 0.670000 0.673333 0.676667 0.680000 0.683333 0.686667 0.690000 0.693333 0.696667 0.700000 0.703333 0.706667 0.710000 0.713333 0.716667 0.720000 0.723333 0.726667 0.730000 0.733333 0.736667 0.740000 0.743333 0.746667 0.750000 0.753333 0.756667 0.760000 0.763333 0.766667 0.770000 0.773333 0.776667 0.780000 0.783333 0.786667 0.790000 0.793333 0.796667 0.800000 0.803333 0.806667 0.810000 0.813333 0.816667 0.820000 0.823333 0.826667 0.830000 0.833333 0.836667 0.840000 0.843333 0.846667 0.850000 0.853333 0.856667 0.860000 0.863333 0.866667 0.870000 0.873333 0.876667 0.880000 0.883333 0.886667 0.890000 0.893333 0.896667 0.900000 0.903333 0.906667 0.910000 0.913333 0.916667 0.920000 0.923333 0.926667 0.930000 0.933333 0.936667 0.940000 0.943333 0.946667 0.950000 0.953333 0.956667 0.960000 0.963333 0.966667 0.970000 0.973333 0.976667 0.980000 0.983333 0.986667 0.990000 0.993333 0.996667 1.000000 
Z_COORDINATES 1 double
0
POINT_DATA 90601 
FIELD FieldData 1 
Concentração 1 90601 double 
0.000000 
0.000000 
0.000000 
0.000000 
0.000000 
0.000000 
0.000000 
0.000000 
0.000000 
0.000000 
0.000000 
0.000000 
0.000000 
0.000000 
0.000000 
0.000000 
0.000000 
0.000000 
0.000000 
0.000000 
0.000000 
0.000000 
0.000000 
0.000000 
0.000000 
0.000000 
0.000000 
0.000000 
0.000000 
0.000000 
0.000000 
0.000000 
0.000000 
0.000000 
0.000000 
0.000000 
0.000000 
0.000000 
0.000000 
0.000000 
0.000000 
0.000000 
0.000000 
0.000000 
0.000000 
0.000000 
0.000000 
0.000000 
0.000000 
0.000000 
0.000000 
0.000000 
0.000000 
0.000000 
0.000000 
0.000000 
0.000000 
0.000000 
0.000000 
0.000000 
0.000000 
0.000000 
0.000000 
0.000000 
0.000000 
0.000000 
0.000000 
0.000000 
0.000000 
0.000000 
0.000000 
0.000000 
0.000000 
0.000000 
0.000000 
0.000000 
0.000000 
0.000000 
0.000001 
0.000001 
0.000001 
0.000001 
0.000001 
0.000001 
0.000001 
0.000001 
0.000001 
0.000001 
0.000001 
0.000001 
0.000001 
0.000001 
0.000001 
0.000002 
0.000002 
0.000002 
0.000002 
0.000002 
0.000002 
0.000002 
0.000003 
0.000003 
0.000003 
0.000003 
0.000003 
0.000004 
0.000004 
0.000004 
0.000004 
0.000005 
0.000005 
0.000005 
0.000006 
0.000006 
0.000007 
0.000007 
0.000007 
0.000008 
0.000008 
0.000009 
0.000010 
0.000010 
0.000011 
0.000011 
0.000012 
0.000013 
0.000014 
0.000015 
0.000015 
0.000016 
0.000017 
0.000018 
0.000019 
0.000021 
0.000022 
0.000023 
0.000024 
0.000026 
0.000027 
0.000029 
0.000030 
0.000032 
0.000034 
0.000035 
0.000037 
0.000039 
0.000041 
0.000043 
0.000046 
0.000048 
0.000050 
0.000053 
0.000056 
0.000058 
0.000061 
0.000064 
0.000067 
0.000070 
0.000074 
0.000077 
0.000081 
0.000084 
0.000088 
0.000092 
0.000096 
0.000100 
0.000105 
0.000109 
0.000114 
0.000119 
0.000124 
0.000129 
0.000134 
0.000140 
0.000145 
0.000151 
0.000157 
0.000163 
0.000169 
0.000176 
0.000182 
0.000189 
0.000196 
0.000203 
0.000210 
0.000218 
0.000225 
0.000233 
0.000241 
0.000249 
0.000258 
0.000266 
0.000275 
0.000284 
0.000293 
0.000302 
0.000311 
0.000320 
0.000330 
0.000340 
0.000350 
0.000360 
0.000370 
0.000381 
0.000391 
0.000402 
0.000413 
0.000424 
0.000435 
0.000446 
0.000458 
0.000469 
0.000481 
0.000492 
0.000504 
0.000516 
0.000528 
0.000540 
0.000552 
0.000565 
0.000577 
0.000589 
0.000602 
0.000614 
0.000627 
0.000639 
0.000652 
0.000665 
0.000677 
0.000690 
0.000703 
0.000716 
0.000728 
0.000741 
0.000754 
0.000767 
0.000779 
0.000792 
0.000804 
0.000817 
0.000829 
0.000842 
0.000854 
0.000867 
0.000879 
0.000891 
0.000903 
0.000915 
0.000927 
0.000938 
0.000950 
0.000961 
0.000973 
0.000984 
0.000995 
0.001006 
0.001017 
0.001027 
0.001038 
0.001048 
0.001058 
0.001068 
0.001078 
0.001088 
0.001097 
0.001106 
0.001115 
0.001124 
0.001133 
0.001141 
0.001149 
0.001157 
0.001165 
0.001172 
0.001179 
0.001186 
0.001193 
0.001199 
0.001206 
0.001212 
0.001217 
0.001223 
0.001228 
0.001233 
0.001238 
0.001242 
0.001246 
0.001250 
0.001254 
0.001257 
0.001260 
0.001263 
0.001266 
0.001268 
0.001270 
0.001272 
0.001273 
0.001274 
0.001275 
0.001276 
0.001276 
0.000000 
0.000000 
0.000000 
0.000000 
0.000000 
0.000000 
0.000000 
0.000000 
0.000000 
0.000000 
0.000000 
0.000000 
0.000000 
0.000000 
0.000000 
0.000000 
0.000000 
0.000000 
0.000000 
0.000000 
0.000000 
0.000000 
0.000000 
0.000000 
0.000000 
0.000000 
0.000000 
0.000000 
0.000000 
0.000000 
0.000000 
0.000000 
0.000000 
0.000000 
0.000000 
0.000000 
0.000000 
0.000000 
0.000000 
0.000000 
0.000000 
0.000000 
0.000000 
0.000000 
0.000000 
0.000000 
0.000000 
0.000000 
0.000000 
0.000000 
0.000000 
0.000000 
0.000000 
0.000000 
0.000000 
0.000000 
0.000000 
0.000000 
0.000000 
0.000000 
0.000000 
0.000000 
0.000000 
0.000000 
0.000000 
0.000000 
0.000000 
0.000000 
0.000000 
0.000000 
0.000001 
0.000001 
0.000001 
0.000001 
0.000001 
0.000001 
0.000001 
0.000001 
0.000001 
0.000001 
0.000001 
0.000001 
0.000001 
0.000002 
0.000002 
0.000002 
0.000002 
0.000002 
0.000002 
0.000002 
0.000003 
0.000003 
0.000003 
0.000003 
0.000003 
0.000004 
0.000004 
0.000004 
0.000005 
0.000005 
0.000005 
0.000006 
0.000006 
0.000006 
0.000007 
0.000007 
0.000008 
0.000008 
0.000009 
0.000010 
0.000010 
0.000011 
0.000012 
0.000012 
0.000013 
0.000014 
0.000015 
0.000016 
0.000017 
0.000018 
0.000019 
0.000020 
0.000022 
0.000023 
0.000025 
0.000026 
0.000028 
0.000029 
0.000031 
0.000033 
0.000035 
0.000037 
0.000039 
0.000041 
0.000044 
0.000046 
0.000049 
0.000052 
0.000054 
0.000057 
0.000061 
0.000064 
0.000067 
0.000071 
0.000075 
0.000079 
0.000083 
0.000087 
0.000092 
0.000096 
0.000101 
0.000106 
0.000112 
0.000117 
0.000123 
0.000129 
0.000135 
0.000141 
0.000148 
0.000155 
0.000162 
0.000169 
0.000177 
0.000185 
0.000193 
0.000202 
0.000210 
0.000219 
0.000229 
0.000238 
0.000248 
0.000259 
0.000269 
0.000280 
0.000291 
0.000303 
0.000315 
0.000327 
0.000340 
0.000352 
0.000366 
0.000379 
0.000393 
0.000407 
0.000422 
0.000437 
0.000452 
0.000468 
0.000484 
0.000500 
0.000517 
0.000534 
0.000551 
0.000569 
0.000587 
0.000605 
0.000624 
0.000643 
0.000662 
0.000682 
0.000702 
0.000722 
0.000743 
0.000763 
0.000785 
0.000806 
0.000828 
0.000850 
0.000872 
0.000894 
0.000917 
0.000940 
0.000963 
0.000987 
0.001010 
0.001034 
0.001058 
0.001082 
0.001107 
0.001131 
0.001156 
0.001181 
0.001206 
0.001231 
0.001256 
0.001281 
0.001306 
0.001332 
0.001357 
0.001383 
0.001408 
0.001433 
0.001459 
0.001484 
0.001510 
0.001535 
0.001561 
0.001586 
0.001611 
0.001636 
0.001661 
0.001686 
0.001711 
0.001735 
0.001759 
0.001784 
0.001808 
0.001832 
0.001855 
0.001879 
0.001902 
0.001925 
0.001947 
0.001970 
0.001992 
0.002014 
0.002035 
0.002057 
0.002077 
0.002098 
0.002118 
0.002138 
0.002158 
0.002177 
0.002195 
0.002214 
0.002232 
0.002249 
0.002266 
0.002283 
0.002299 
0.002315 
0.002330 
0.002345 
0.002360 
0.002373 
0.002387 
0.002400 
0.002412 
0.002424 
0.002436 
0.002447 
0.002457 
0.002467 
0.002476 
0.002485 
0.002494 
0.002501 
0.002509 
0.002515 
0.002521 
0.002527 
0.002532 
0.002537 
0.002540 
0.002544 
0.002547 
0.002549 
0.002551 
0.002552 
0.002552 
0.000000 
0.000000 
0.000000 
0.000000 
0.000000 
0.000000 
0.000000 
0.000000 
0.000000 
0.000000 
0.000000 
0.000000 
0.000000 
0.000000 
0.000000 
0.000000 
0.000000 
0.000000 
0.000000 
0.000000 
0.000000 
0.000000 
0.000000 
0.000000 
0.000000 
0.000000 
0.000000 
0.000000 
0.000000 
0.000000 
0.000000 
0.000000 
0.000000 
0.000000 
0.000000 
0.000000 
0.000000 
0.000000 
0.000000 
0.000000 
0.000000 
0.000000 
0.000000 
0.000000 
0.000000 
0.000000 
0.000000 
0.000000 
0.000000 
0.000000 
0.000000 
0.000000 
0.000000 
0.000000 
0.000000 
0.000000 
0.000000 
0.000000 
0.000000 
0.000000 
0.000000 
0.000000 
0.000000 
0.000000 
0.000001 
0.000001 
0.000001 
0.000001 
0.000001 
0.000001 
0.000001 
0.000001 
0.000001 
0.000001 
0.000001 
0.000001 
0.000001 
0.000001 
0.000002 
0.000002 
0.000002 
0.000002 
0.000002 
0.000002 
0.000002 
0.000003 
0.000003 
0.000003 
0.000003 
0.000004 
0.000004 
0.000004 
0.000004 
0.000005 
0.000005 
0.000006 
0.000006 
0.000006 
0.000007 
0.000007 
0.000008 
0.000008 
0.000009 
0.000010 
0.000010 
0.000011 
0.000012 
0.000013 
0.000014 
0.000014 
0.000015 
0.000016 
0.000018 
0.000019 
0.000020 
0.000021 
0.000023 
0.000024 
0.000026 
0.000027 
0.000029 
0.000031 
0.000033 
0.000035 
0.000037 
0.000039 
0.000042 
0.000044 
0.000047 
0.000050 
0.000053 
0.000056 
0.000059 
0.000062 
0.000066 
0.000070 
0.000074 
0.000078 
0.000082 
0.000087 
0.000092 
0.000097 
0.000102 
0.000107 
0.000113 
0.000119 
0.000125 
0.000132 
0.000138 
0.000145 
0.000153 
0.000160 
0.000168 
0.000177 
0.000185 
0.000194 
0.000204 
0.000213 
0.000223 
0.000234 
0.000244 
0.000256 
0.000267 
0.000279 
0.000291 
0.000304 
0.000318 
0.000331 
0.000345 
0.000360 
0.000375 
0.000390 
0.000406 
0.000423 
0.000440 
0.000457 
0.000475 
0.000493 
0.000512 
0.000532 
0.000552 
0.000572 
0.000593 
0.000614 
0.000636 
0.000659 
0.000682 
0.000705 
0.000729 
0.000754 
0.000779 
0.000805 
0.000831 
0.000857 
0.000884 
0.000912 
0.000940 
0.000969 
0.000998 
0.001027 
0.001057 
0.001088 
0.001119 
0.001150 
0.001182 
0.001214 
0.001247 
0.001280 
0.001313 
0.001347 
0.001381 
0.001416 
0.001450 
0.001486 
0.001521 
0.001557 
0.001593 
0.001629 
0.001666 
0.001703 
0.001740 
0.001777 
0.001814 
0.001852 
0.001890 
0.001927 
0.001965 
0.002003 
0.002041 
0.002080 
0.002118 
0.002156 
0.002194 
0.002232 
0.002270 
0.002308 
0.002346 
0.002384 
0.002422 
0.002459 
0.002497 
0.002534 
0.002571 
0.002608 
0.002644 
0.002681 
0.002717 
0.002752 
0.002788 
0.002823 
0.002858 
0.002892 
0.002926 
0.002959 
0.002993 
0.003025 
0.003057 
0.003089 
0.003120 
0.003151 
0.003181 
0.003211 
0.003240 
0.003269 
0.003297 
0.003324 
0.003351 
0.003377 
0.003403 
0.003428 
0.003452 
0.003476 
0.003498 
0.003521 
0.003542 
0.003563 
0.003583 
0.003603 
0.003621 
0.003639 
0.003656 
0.003672 
0.003688 
0.003703 
0.003717 
0.003730 
0.003743 
0.003754 
0.003765 
0.003775 
0.003784 
0.003793 
0.003800 
0.003807 
0.003813 
0.003818 
0.003822 
0.003825 
0.003828 
0.003830 
0.003830 
0.000000 
0.000000 
0.000000 
0.000000 
0.000000 
0.000000 
0.000000 
0.000000 
0.000000 
0.000000 
0.000000 
0.000000 
0.000000 
0.000000 
0.000000 
0.000000 
0.000000 
0.000000 
0.000000 
0.000000 
0.000000 
0.000000 
0.000000 
0.000000 
0.000000 
0.000000 
0.000000 
0.000000 
0.000000 
0.000000 
0.000000 
0.000000 
0.000000 
0.000000 
0.000000 
0.000000 
0.000000 
0.000000 
0.000000 
0.000000 
0.000000 
0.000000 
0.000000 
0.000000 
0.000000 
0.000000 
0.000000 
0.000000 
0.000000 
0.000000 
0.000000 
0.000000 
0.000000 
0.000000 
0.000000 
0.000000 
0.000000 
0.000000 
0.000000 
0.000000 
0.000000 
0.000001 
0.000001 
0.000001 
0.000001 
0.000001 
0.000001 
0.000001 
0.000001 
0.000001 
0.000001 
0.000001 
0.000001 
0.000001 
0.000002 
0.000002 
0.000002 
0.000002 
0.000002 
0.000002 
0.000002 
0.000003 
0.000003 
0.000003 
0.000003 
0.000004 
0.000004 
0.000004 
0.000004 
0.000005 
0.000005 
0.000006 
0.000006 
0.000006 
0.000007 
0.000007 
0.000008 
0.000009 
0.000009 
0.000010 
0.000011 
0.000011 
0.000012 
0.000013 
0.000014 
0.000015 
0.000016 
0.000017 
0.000018 
0.000019 
0.000021 
0.000022 
0.000024 
0.000025 
0.000027 
0.000029 
0.000031 
0.000033 
0.000035 
0.000037 
0.000039 
0.000042 
0.000044 
0.000047 
0.000050 
0.000053 
0.000056 
0.000060 
0.000063 
0.000067 
0.000071 
0.000075 
0.000080 
0.000084 
0.000089 
0.000094 
0.000099 
0.000105 
0.000111 
0.000117 
0.000123 
0.000130 
0.000137 
0.000145 
0.000152 
0.000160 
0.000169 
0.000177 
0.000186 
0.000196 
0.000206 
0.000216 
0.000227 
0.000238 
0.000249 
0.000262 
0.000274 
0.000287 
0.000300 
0.000314 
0.000329 
0.000344 
0.000359 
0.000376 
0.000392 
0.000409 
0.000427 
0.000445 
0.000464 
0.000484 
0.000504 
0.000525 
0.000546 
0.000568 
0.000591 
0.000614 
0.000639 
0.000663 
0.000689 
0.000715 
0.000741 
0.000769 
0.000797 
0.000825 
0.000855 
0.000885 
0.000916 
0.000947 
0.000980 
0.001012 
0.001046 
0.001080 
0.001115 
0.001151 
0.001187 
0.001224 
0.001262 
0.001300 
0.001339 
0.001378 
0.001419 
0.001459 
0.001501 
0.001543 
0.001585 
0.001628 
0.001672 
0.001716 
0.001761 
0.001806 
0.001851 
0.001898 
0.001944 
0.001991 
0.002039 
0.002086 
0.002134 
0.002183 
0.002232 
0.002281 
0.002330 
0.002380 
0.002430 
0.002480 
0.002530 
0.002581 
0.002631 
0.002682 
0.002733 
0.002784 
0.002834 
0.002885 
0.002936 
0.002987 
0.003038 
0.003088 
0.003139 
0.003189 
0.003240 
0.003290 
0.003339 
0.003389 
0.003438 
0.003487 
0.003536 
0.003584 
0.003632 
0.003679 
0.003726 
0.003773 
0.003819 
0.003865 
0.003910 
0.003955 
0.003999 
0.004042 
0.004085 
0.004127 
0.004169 
0.004210 
0.004250 
0.004289 
0.004328 
0.004366 
0.004403 
0.004440 
0.004475 
0.004510 
0.004544 
0.004577 
0.004609 
0.004640 
0.004671 
0.004700 
0.004729 
0.004757 
0.004783 
0.004809 
0.004834 
0.004857 
0.004880 
0.004902 
0.004922 
0.004942 
0.004961 
0.004978 
0.004995 
0.005010 
0.005025 
0.005038 
0.005050 
0.005061 
0.005071 
0.005080 
0.005088 
0.005095 
0.005100 
0.005105 
0.005108 
0.005110 
0.005111 
0.000000 
0.000000 
0.000000 
0.000000 
0.000000 
0.000000 
0.000000 
0.000000 
0.000000 
0.000000 
0.000000 
0.000000 
0.000000 
0.000000 
0.000000 
0.000000 
0.000000 
0.000000 
0.000000 
0.000000 
0.000000 
0.000000 
0.000000 
0.000000 
0.000000 
0.000000 
0.000000 
0.000000 
0.000000 
0.000000 
0.000000 
0.000000 
0.000000 
0.000000 
0.000000 
0.000000 
0.000000 
0.000000 
0.000000 
0.000000 
0.000000 
0.000000 
0.000000 
0.000000 
0.000000 
0.000000 
0.000000 
0.000000 
0.000000 
0.000000 
0.000000 
0.000000 
0.000000 
0.000000 
0.000000 
0.000000 
0.000000 
0.000000 
0.000001 
0.000001 
0.000001 
0.000001 
0.000001 
0.000001 
0.000001 
0.000001 
0.000001 
0.000001 
0.000001 
0.000001 
0.000001 
0.000002 
0.000002 
0.000002 
0.000002 
0.000002 
0.000002 
0.000002 
0.000003 
0.000003 
0.000003 
0.000003 
0.000004 
0.000004 
0.000004 
0.000005 
0.000005 
0.000005 
0.000006 
0.000006 
0.000007 
0.000007 
0.000008 
0.000008 
0.000009 
0.000009 
0.000010 
0.000011 
0.000012 
0.000013 
0.000013 
0.000014 
0.000015 
0.000017 
0.000018 
0.000019 
0.000020 
0.000022 
0.000023 
0.000025 
0.000026 
0.000028 
0.000030 
0.000032 
0.000034 
0.000036 
0.000039 
0.000041 
0.000044 
0.000047 
0.000050 
0.000053 
0.000056 
0.000060 
0.000063 
0.000067 
0.000071 
0.000076 
0.000080 
0.000085 
0.000090 
0.000095 
0.000101 
0.000107 
0.000113 
0.000119 
0.000126 
0.000133 
0.000140 
0.000148 
0.000156 
0.000165 
0.000174 
0.000183 
0.000193 
0.000203 
0.000213 
0.000224 
0.000236 
0.000248 
0.000260 
0.000273 
0.000287 
0.000301 
0.000316 
0.000331 
0.000347 
0.000363 
0.000380 
0.000398 
0.000416 
0.000435 
0.000455 
0.000475 
0.000496 
0.000518 
0.000540 
0.000563 
0.000587 
0.000612 
0.000637 
0.000663 
0.000690 
0.000718 
0.000747 
0.000776 
0.000807 
0.000838 
0.000870 
0.000902 
0.000936 
0.000970 
0.001006 
0.001042 
0.001079 
0.001117 
0.001156 
0.001195 
0.001236 
0.001277 
0.001319 
0.001363 
0.001406 
0.001451 
0.001497 
0.001543 
0.001591 
0.001639 
0.001687 
0.001737 
0.001787 
0.001839 
0.001891 
0.001943 
0.001997 
0.002051 
0.002105 
0.002161 
0.002217 
0.002273 
0.002331 
0.002388 
0.002447 
0.002506 
0.002565 
0.002625 
0.002685 
0.002746 
0.002807 
0.002868 
0.002930 
0.002992 
0.003055 
0.003117 
0.003180 
0.003243 
0.003307 
0.003370 
0.003433 
0.003497 
0.003560 
0.003624 
0.003688 
0.003751 
0.003814 
0.003878 
0.003941 
0.004004 
0.004066 
0.004129 
0.004191 
0.004253 
0.004314 
0.004375 
0.004436 
0.004496 
0.004556 
0.004615 
0.004674 
0.004732 
0.004789 
0.004846 
0.004902 
0.004958 
0.005013 
0.005067 
0.005120 
0.005173 
0.005224 
0.005275 
0.005325 
0.005374 
0.005423 
0.005470 
0.005516 
0.005561 
0.005606 
0.005649 
0.005691 
0.005732 
0.005772 
0.005811 
0.005849 
0.005886 
0.005921 
0.005956 
0.005989 
0.006021 
0.006052 
0.006081 
0.006109 
0.006136 
0.006162 
0.006186 
0.006209 
0.006231 
0.006252 
0.006271 
0.006289 
0.006305 
0.006320 
0.006334 
0.006347 
0.006358 
0.006367 
0.006376 
0.006383 
0.006388 
0.006392 
0.006395 
0.006397 
0.000000 
0.000000 
0.000000 
0.000000 
0.000000 
0.000000 
0.000000 
0.000000 
0.000000 
0.000000 
0.000000 
0.000000 
0.000000 
0.000000 
0.000000 
0.000000 
0.000000 
0.000000 
0.000000 
0.000000 
0.000000 
0.000000 
0.000000 
0.000000 
0.000000 
0.000000 
0.000000 
0.000000 
0.000000 
0.000000 
0.000000 
0.000000 
0.000000 
0.000000 
0.000000 
0.000000 
0.000000 
0.000000 
0.000000 
0.000000 
0.000000 
0.000000 
0.000000 
0.000000 
0.000000 
0.000000 
0.000000 
0.000000 
0.000000 
0.000000 
0.000000 
0.000000 
0.000000 
0.000000 
0.000000 
0.000000 
0.000001 
0.000001 
0.000001 
0.000001 
0.000001 
0.000001 
0.000001 
0.000001 
0.000001 
0.000001 
0.000001 
0.000001 
0.000001 
0.000002 
0.000002 
0.000002 
0.000002 
0.000002 
0.000002 
0.000003 
0.000003 
0.000003 
0.000003 
0.000004 
0.000004 
0.000004 
0.000004 
0.000005 
0.000005 
0.000006 
0.000006 
0.000006 
0.000007 
0.000007 
0.000008 
0.000009 
0.000009 
0.000010 
0.000011 
0.000012 
0.000012 
0.000013 
0.000014 
0.000015 
0.000016 
0.000018 
0.000019 
0.000020 
0.000022 
0.000023 
0.000025 
0.000026 
0.000028 
0.000030 
0.000032 
0.000034 
0.000037 
0.000039 
0.000042 
0.000044 
0.000047 
0.000050 
0.000054 
0.000057 
0.000061 
0.000064 
0.000069 
0.000073 
0.000077 
0.000082 
0.000087 
0.000092 
0.000098 
0.000104 
0.000110 
0.000116 
0.000123 
0.000130 
0.000138 
0.000145 
0.000154 
0.000162 
0.000171 
0.000181 
0.000191 
0.000201 
0.000212 
0.000223 
0.000235 
0.000247 
0.000260 
0.000274 
0.000288 
0.000302 
0.000317 
0.000333 
0.000350 
0.000367 
0.000385 
0.000403 
0.000422 
0.000442 
0.000463 
0.000484 
0.000506 
0.000529 
0.000553 
0.000578 
0.000603 
0.000630 
0.000657 
0.000685 
0.000714 
0.000744 
0.000775 
0.000807 
0.000839 
0.000873 
0.000908 
0.000944 
0.000980 
0.001018 
0.001057 
0.001096 
0.001137 
0.001179 
0.001221 
0.001265 
0.001310 
0.001356 
0.001403 
0.001451 
0.001500 
0.001550 
0.001601 
0.001653 
0.001706 
0.001760 
0.001815 
0.001871 
0.001928 
0.001986 
0.002045 
0.002105 
0.002166 
0.002228 
0.002290 
0.002354 
0.002418 
0.002483 
0.002549 
0.002616 
0.002683 
0.002752 
0.002820 
0.002890 
0.002960 
0.003031 
0.003103 
0.003175 
0.003247 
0.003320 
0.003393 
0.003467 
0.003542 
0.003616 
0.003691 
0.003767 
0.003842 
0.003918 
0.003994 
0.004070 
0.004146 
0.004222 
0.004298 
0.004375 
0.004451 
0.004527 
0.004603 
0.004679 
0.004754 
0.004830 
0.004905 
0.004979 
0.005054 
0.005128 
0.005201 
0.005274 
0.005347 
0.005419 
0.005490 
0.005561 
0.005631 
0.005701 
0.005770 
0.005838 
0.005905 
0.005971 
0.006037 
0.006101 
0.006165 
0.006228 
0.006290 
0.006350 
0.006410 
0.006469 
0.006526 
0.006583 
0.006638 
0.006692 
0.006745 
0.006796 
0.006847 
0.006896 
0.006944 
0.006990 
0.007035 
0.007079 
0.007121 
0.007162 
0.007202 
0.007240 
0.007277 
0.007312 
0.007345 
0.007378 
0.007408 
0.007437 
0.007465 
0.007491 
0.007515 
0.007538 
0.007559 
0.007579 
0.007597 
0.007613 
0.007628 
0.007641 
0.007653 
0.007663 
0.007671 
0.007678 
0.007683 
0.007686 
0.007688 
0.000000 
0.000000 
0.000000 
0.000000 
0.000000 
0.000000 
0.000000 
0.000000 
0.000000 
0.000000 
0.000000 
0.000000 
0.000000 
0.000000 
0.000000 
0.000000 
0.000000 
0.000000 
0.000000 
0.000000 
0.000000 
0.000000 
0.000000 
0.000000 
0.000000 
0.000000 
0.000000 
0.000000 
0.000000 
0.000000 
0.000000 
0.000000 
0.000000 
0.000000 
0.000000 
0.000000 
0.000000 
0.000000 
0.000000 
0.000000 
0.000000 
0.000000 
0.000000 
0.000000 
0.000000 
0.000000 
0.000000 
0.000000 
0.000000 
0.000000 
0.000000 
0.000000 
0.000000 
0.000000 
0.000001 
0.000001 
0.000001 
0.000001 
0.000001 
0.000001 
0.000001 
0.000001 
0.000001 
0.000001 
0.000001 
0.000001 
0.000001 
0.000002 
0.000002 
0.000002 
0.000002 
0.000002 
0.000002 
0.000003 
0.000003 
0.000003 
0.000003 
0.000004 
0.000004 
0.000004 
0.000005 
0.000005 
0.000005 
0.000006 
0.000006 
0.000007 
0.000007 
0.000008 
0.000008 
0.000009 
0.000010 
0.000010 
0.000011 
0.000012 
0.000013 
0.000014 
0.000015 
0.000016 
0.000017 
0.000018 
0.000020 
0.000021 
0.000022 
0.000024 
0.000026 
0.000028 
0.000029 
0.000031 
0.000034 
0.000036 
0.000038 
0.000041 
0.000044 
0.000047 
0.000050 
0.000053 
0.000056 
0.000060 
0.000064 
0.000068 
0.000072 
0.000077 
0.000082 
0.000087 
0.000092 
0.000098 
0.000104 
0.000110 
0.000116 
0.000123 
0.000131 
0.000138 
0.000146 
0.000155 
0.000164 
0.000173 
0.000183 
0.000193 
0.000204 
0.000215 
0.000227 
0.000239 
0.000252 
0.000265 
0.000279 
0.000294 
0.000309 
0.000325 
0.000342 
0.000359 
0.000377 
0.000396 
0.000415 
0.000435 
0.000456 
0.000478 
0.000501 
0.000525 
0.000549 
0.000575 
0.000601 
0.000628 
0.000656 
0.000685 
0.000716 
0.000747 
0.000779 
0.000812 
0.000846 
0.000882 
0.000918 
0.000956 
0.000994 
0.001034 
0.001075 
0.001117 
0.001161 
0.001205 
0.001251 
0.001297 
0.001346 
0.001395 
0.001445 
0.001497 
0.001550 
0.001604 
0.001659 
0.001715 
0.001773 
0.001832 
0.001892 
0.001953 
0.002016 
0.002079 
0.002144 
0.002210 
0.002277 
0.002345 
0.002414 
0.002485 
0.002556 
0.002628 
0.002702 
0.002776 
0.002852 
0.002928 
0.003006 
0.003084 
0.003163 
0.003243 
0.003323 
0.003405 
0.003487 
0.003570 
0.003654 
0.003738 
0.003823 
0.003908 
0.003994 
0.004080 
0.004167 
0.004254 
0.004342 
0.004430 
0.004518 
0.004606 
0.004695 
0.004784 
0.004873 
0.004961 
0.005050 
0.005139 
0.005228 
0.005317 
0.005405 
0.005494 
0.005582 
0.005669 
0.005757 
0.005844 
0.005930 
0.006016 
0.006102 
0.006187 
0.006271 
0.006355 
0.006438 
0.006521 
0.006602 
0.006683 
0.006763 
0.006842 
0.006920 
0.006997 
0.007073 
0.007148 
0.007222 
0.007295 
0.007367 
0.007437 
0.007506 
0.007574 
0.007641 
0.007706 
0.007771 
0.007833 
0.007894 
0.007954 
0.008013 
0.008070 
0.008125 
0.008179 
0.008231 
0.008282 
0.008331 
0.008378 
0.008424 
0.008468 
0.008510 
0.008551 
0.008590 
0.008627 
0.008663 
0.008696 
0.008728 
0.008758 
0.008787 
0.008813 
0.008838 
0.008860 
0.008881 
0.008900 
0.008917 
0.008933 
0.008946 
0.008957 
0.008967 
0.008975 
0.008980 
0.008984 
0.008986 
0.000000 
0.000000 
0.000000 
0.000000 
0.000000 
0.000000 
0.000000 
0.000000 
0.000000 
0.000000 
0.000000 
0.000000 
0.000000 
0.000000 
0.000000 
0.000000 
0.000000 
0.000000 
0.000000 
0.000000 
0.000000 
0.000000 
0.000000 
0.000000 
0.000000 
0.000000 
0.000000 
0.000000 
0.000000 
0.000000 
0.000000 
0.000000 
0.000000 
0.000000 
0.000000 
0.000000 
0.000000 
0.000000 
0.000000 
0.000000 
0.000000 
0.000000 
0.000000 
0.000000 
0.000000 
0.000000 
0.000000 
0.000000 
0.000000 
0.000000 
0.000000 
0.000000 
0.000001 
0.000001 
0.000001 
0.000001 
0.000001 
0.000001 
0.000001 
0.000001 
0.000001 
0.000001 
0.000001 
0.000001 
0.000001 
0.000002 
0.000002 
0.000002 
0.000002 
0.000002 
0.000002 
0.000003 
0.000003 
0.000003 
0.000003 
0.000004 
0.000004 
0.000004 
0.000005 
0.000005 
0.000005 
0.000006 
0.000006 
0.000007 
0.000007 
0.000008 
0.000008 
0.000009 
0.000010 
0.000010 
0.000011 
0.000012 
0.000013 
0.000014 
0.000015 
0.000016 
0.000017 
0.000019 
0.000020 
0.000021 
0.000023 
0.000025 
0.000026 
0.000028 
0.000030 
0.000032 
0.000034 
0.000037 
0.000039 
0.000042 
0.000045 
0.000048 
0.000051 
0.000054 
0.000058 
0.000062 
0.000066 
0.000070 
0.000075 
0.000079 
0.000084 
0.000090 
0.000095 
0.000101 
0.000107 
0.000114 
0.000121 
0.000128 
0.000136 
0.000144 
0.000153 
0.000161 
0.000171 
0.000181 
0.000191 
0.000202 
0.000213 
0.000225 
0.000238 
0.000251 
0.000264 
0.000279 
0.000294 
0.000309 
0.000326 
0.000343 
0.000361 
0.000379 
0.000398 
0.000419 
0.000439 
0.000461 
0.000484 
0.000508 
0.000532 
0.000558 
0.000584 
0.000611 
0.000640 
0.000669 
0.000700 
0.000732 
0.000764 
0.000798 
0.000833 
0.000869 
0.000907 
0.000945 
0.000985 
0.001026 
0.001068 
0.001112 
0.001157 
0.001203 
0.001250 
0.001299 
0.001349 
0.001400 
0.001453 
0.001507 
0.001563 
0.001620 
0.001678 
0.001738 
0.001799 
0.001861 
0.001925 
0.001990 
0.002057 
0.002125 
0.002194 
0.002265 
0.002337 
0.002410 
0.002485 
0.002561 
0.002638 
0.002717 
0.002796 
0.002877 
0.002959 
0.003043 
0.003127 
0.003213 
0.003300 
0.003388 
0.003476 
0.003566 
0.003657 
0.003749 
0.003841 
0.003935 
0.004029 
0.004124 
0.004220 
0.004317 
0.004414 
0.004512 
0.004610 
0.004709 
0.004809 
0.004909 
0.005009 
0.005109 
0.005210 
0.005311 
0.005413 
0.005514 
0.005616 
0.005717 
0.005819 
0.005920 
0.006022 
0.006123 
0.006224 
0.006325 
0.006425 
0.006525 
0.006625 
0.006724 
0.006823 
0.006921 
0.007019 
0.007115 
0.007212 
0.007307 
0.007401 
0.007495 
0.007588 
0.007680 
0.007771 
0.007861 
0.007949 
0.008037 
0.008124 
0.008209 
0.008293 
0.008376 
0.008457 
0.008537 
0.008616 
0.008693 
0.008769 
0.008843 
0.008916 
0.008987 
0.009056 
0.009124 
0.009191 
0.009255 
0.009318 
0.009379 
0.009438 
0.009496 
0.009551 
0.009605 
0.009657 
0.009707 
0.009755 
0.009801 
0.009845 
0.009887 
0.009928 
0.009966 
0.010002 
0.010036 
0.010068 
0.010098 
0.010126 
0.010151 
0.010175 
0.010197 
0.010216 
0.010233 
0.010248 
0.010261 
0.010272 
0.010281 
0.010287 
0.010292 
0.010294 
0.000000 
0.000000 
0.000000 
0.000000 
0.000000 
0.000000 
0.000000 
0.000000 
0.000000 
0.000000 
0.000000 
0.000000 
0.000000 
0.000000 
0.000000 
0.000000 
0.000000 
0.000000 
0.000000 
0.000000 
0.000000 
0.000000 
0.000000 
0.000000 
0.000000 
0.000000 