# vtk DataFile Version 3.0
results.vtk
ASCII
DATASET RECTILINEAR_GRID
DIMENSIONS 301 301 1
X_COORDINATES 301 double
0.000000 0.003333 0.006667 0.010000 0.013333 0.016667 0.020000 0.023333 0.026667 0.030000 0.033333 0.036667 0.040000 0.043333 0.046667 0.050000 0.053333 0.056667 0.060000 0.063333 0.066667 0.070000 0.073333 0.076667 0.080000 0.083333 0.086667 0.090000 0.093333 0.096667 0.100000 0.103333 0.106667 0.110000 0.113333 0.116667 0.120000 0.123333 0.126667 0.130000 0.133333 0.136667 0.140000 0.143333 0.146667 0.150000 0.153333 0.156667 0.160000 0.163333 0.166667 0.170000 0.173333 0.176667 0.180000 0.183333 0.186667 0.190000 0.193333 0.196667 0.200000 0.203333 0.206667 0.210000 0.213333 0.216667 0.220000 0.223333 0.226667 0.230000 0.233333 0.236667 0.240000 0.243333 0.246667 0.250000 0.253333 0.256667 0.260000 0.263333 0.266667 0.270000 0.273333 0.276667 0.280000 0.283333 0.286667 0.290000 0.293333 0.296667 0.300000 0.303333 0.306667 0.310000 0.313333 0.316667 0.320000 0.323333 0.326667 0.330000 0.333333 0.336667 0.340000 0.343333 0.346667 0.350000 0.353333 0.356667 0.360000 0.363333 0.366667 0.370000 0.373333 0.376667 0.380000 0.383333 0.386667 0.390000 0.393333 0.396667 0.400000 0.403333 0.406667 0.410000 0.413333 0.416667 0.420000 0.423333 0.426667 0.430000 0.433333 0.436667 0.440000 0.443333 0.446667 0.450000 0.453333 0.456667 0.460000 0.463333 0.466667 0.470000 0.473333 0.476667 0.480000 0.483333 0.486667 0.490000 0.493333 0.496667 0.500000 0.503333 0.506667 0.510000 0.513333 0.516667 0.520000 0.523333 0.526667 0.530000 0.533333 0.536667 0.540000 0.543333 0.546667 0.550000 0.553333 0.556667 0.560000 0.563333 0.566667 0.570000 0.573333 0.576667 0.580000 0.583333 0.586667 0.590000 0.593333 0.596667 0.600000 0.603333 0.606667 0.610000 0.613333 0.616667 0.620000 0.623333 0.626667 0.630000 0.633333 0.636667 0.640000 0.643333 0.646667 0.650000 0.653333 0.656667 0.660000 0.663333 0.666667 0.670000 0.673333 0.676667 0.680000 0.683333 0.686667 0.690000 0.693333 0.696667 0.700000 0.703333 0.706667 0.710000 0.713333 0.716667 0.720000 0.723333 0.726667 0.730000 0.733333 0.736667 0.740000 0.743333 0.746667 0.750000 0.753333 0.756667 0.760000 0.763333 0.766667 0.770000 0.773333 0.776667 0.780000 0.783333 0.786667 0.790000 0.793333 0.796667 0.800000 0.803333 0.806667 0.810000 0.813333 0.816667 0.820000 0.823333 0.826667 0.830000 0.833333 0.836667 0.840000 0.843333 0.846667 0.850000 0.853333 0.856667 0.860000 0.863333 0.866667 0.870000 0.873333 0.876667 0.880000 0.883333 0.886667 0.890000 0.893333 0.896667 0.900000 0.903333 0.906667 0.910000 0.913333 0.916667 0.920000 0.923333 0.926667 0.930000 0.933333 0.936667 0.940000 0.943333 0.946667 0.950000 0.953333 0.956667 0.960000 0.963333 0.966667 0.970000 0.973333 0.976667 0.980000 0.983333 0.986667 0.990000 0.993333 0.996667 1.000000 
Y_COORDINATES 301 double
0.000000 0.003333 0.006667 0.010000 0.013333 0.016667 0.020000 0.023333 0.026667 0.030000 0.033333 0.036667 0.040000 0.043333 0.046667 0.050000 0.053333 0.056667 0.060000 0.063333 0.066667 0.070000 0.073333 0.076667 0.080000 0.083333 0.086667 0.090000 0.093333 0.096667 0.100000 0.103333 0.106667 0.110000 0.113333 0.116667 0.120000 0.123333 0.126667 0.130000 0.133333 0.136667 0.140000 0.143333 0.146667 0.150000 0.153333 0.156667 0.160000 0.163333 0.166667 0.170000 0.173333 0.176667 0.180000 0.183333 0.186667 0.190000 0.193333 0.196667 0.200000 0.203333 0.206667 0.210000 0.213333 0.216667 0.220000 0.223333 0.226667 0.230000 0.233333 0.236667 0.240000 0.243333 0.246667 0.250000 0.253333 0.256667 0.260000 0.263333 0.266667 0.270000 0.273333 0.276667 0.280000 0.283333 0.286667 0.290000 0.293333 0.296667 0.300000 0.303333 0.306667 0.310000 0.313333 0.316667 0.320000 0.323333 0.326667 0.330000 0.333333 0.336667 0.340000 0.343333 0.346667 0.350000 0.353333 0.356667 0.360000 0.363333 0.366667 0.370000 0.373333 0.376667 0.380000 0.383333 0.386667 0.390000 0.393333 0.396667 0.400000 0.403333 0.406667 0.410000 0.413333 0.416667 0.420000 0.423333 0.426667 0.430000 0.433333 0.436667 0.440000 0.443333 0.446667 0.450000 0.453333 0.456667 0.460000 0.463333 0.466667 0.470000 0.473333 0.476667 0.480000 0.483333 0.486667 0.490000 0.493333 0.496667 0.500000 0.503333 0.506667 0.510000 0.513333 0.516667 0.520000 0.523333 0.526667 0.530000 0.533333 0.536667 0.540000 0.543333 0.546667 0.550000 0.553333 0.556667 0.560000 0.563333 0.566667 0.570000 0.573333 0.576667 0.580000 0.583333 0.586667 0.590000 0.593333 0.596667 0.600000 0.603333 0.606667 0.610000 0.613333 0.616667 0.620000 0.623333 0.626667 0.630000 0.633333 0.636667 0.640000 0.643333 0.646667 0.650000 0.653333 0.656667 0.660000 0.663333 0.666667 0.670000 0.673333 0.676667 0.680000 0.683333 0.686667 0.690000 0.693333 0.696667 0.700000 0.703333 0.706667 0.710000 0.713333 0.716667 0.720000 0.723333 0.726667 0.730000 0.733333 0.736667 0.740000 0.743333 0.746667 0.750000 0.753333 0.756667 0.760000 0.763333 0.766667 0.770000 0.773333 0.776667 0.780000 0.783333 0.786667 0.790000 0.793333 0.796667 0.800000 0.803333 0.806667 0.810000 0.813333 0.816667 0.820000 0.823333 0.826667 0.830000 0.833333 0.836667 0.840000 0.843333 0.846667 0.850000 0.853333 0.856667 0.860000 0.863333 0.866667 0.870000 0.873333 0.876667 0.880000 0.883333 0.886667 0.890000 0.893333 0.896667 0.900000 0.903333 0.906667 0.910000 0.913333 0.916667 0.920000 0.923333 0.926667 0.930000 0.933333 0.936667 0.940000 0.943333 0.946667 0.950000 0.953333 0.956667 0.960000 0.963333 0.966667 0.970000 0.973333 0.976667 0.980000 0.983333 0.986667 0.990000 0.993333 0.996667 1.000000 
Z_COORDINATES 1 double
0
POINT_DATA 90601 
FIELD FieldData 1 
Concentração 1 90601 double 
0.000000 
0.000000 
0.000000 
0.000000 
0.000000 
0.000000 
0.000000 
0.000000 
0.000000 
0.000000 
0.000000 
0.000000 
0.000000 
0.000000 
0.000000 
0.000000 
0.000000 
0.000000 
0.000000 
0.000000 
0.000000 
0.000000 
0.000000 
0.000000 
0.000000 
0.000000 
0.000000 
0.000000 
0.000000 
0.000000 
0.000000 
0.000000 
0.000000 
0.000000 
0.000000 
0.000000 
0.000000 
0.000000 
0.000000 
0.000000 
0.000000 
0.000000 
0.000000 
0.000000 
0.000000 
0.000000 
0.000000 
0.000000 
0.000000 
0.000000 
0.000000 
0.000000 
0.000000 
0.000000 
0.000000 
0.000000 
0.000000 
0.000000 
0.000000 
0.000000 
0.000000 
0.000000 
0.000000 
0.000000 
0.000000 
0.000000 
0.000000 
0.000000 
0.000000 
0.000000 
0.000000 
0.000000 
0.000000 
0.000000 
0.000000 
0.000000 
0.000000 
0.000000 
0.000000 
0.000000 
0.000000 
0.000000 
0.000000 
0.000000 
0.000000 
0.000000 
0.000000 
0.000000 
0.000000 
0.000000 
0.000000 
0.000000 
0.000000 
0.000000 
0.000000 
0.000000 
0.000000 
0.000001 
0.000001 
0.000001 
0.000001 
0.000001 
0.000001 
0.000001 
0.000001 
0.000001 
0.000001 
0.000001 
0.000001 
0.000001 
0.000001 
0.000001 
0.000001 
0.000002 
0.000002 
0.000002 
0.000002 
0.000002 
0.000002 
0.000002 
0.000003 
0.000003 
0.000003 
0.000003 
0.000003 
0.000003 
0.000004 
0.000004 
0.000004 
0.000004 
0.000005 
0.000005 
0.000005 
0.000006 
0.000006 
0.000006 
0.000007 
0.000007 
0.000008 
0.000008 
0.000008 
0.000009 
0.000010 
0.000010 
0.000011 
0.000011 
0.000012 
0.000012 
0.000013 
0.000014 
0.000015 
0.000015 
0.000016 
0.000017 
0.000018 
0.000019 
0.000020 
0.000021 
0.000022 
0.000023 
0.000024 
0.000025 
0.000027 
0.000028 
0.000029 
0.000031 
0.000032 
0.000034 
0.000035 
0.000037 
0.000039 
0.000040 
0.000042 
0.000044 
0.000046 
0.000048 
0.000050 
0.000052 
0.000054 
0.000057 
0.000059 
0.000061 
0.000064 
0.000066 
0.000069 
0.000072 
0.000075 
0.000078 
0.000080 
0.000083 
0.000087 
0.000090 
0.000093 
0.000096 
0.000100 
0.000103 
0.000107 
0.000111 
0.000114 
0.000118 
0.000122 
0.000126 
0.000130 
0.000134 
0.000139 
0.000143 
0.000147 
0.000152 
0.000157 
0.000161 
0.000166 
0.000171 
0.000176 
0.000180 
0.000185 
0.000191 
0.000196 
0.000201 
0.000206 
0.000212 
0.000217 
0.000222 
0.000228 
0.000233 
0.000239 
0.000245 
0.000250 
0.000256 
0.000262 
0.000268 
0.000273 
0.000279 
0.000285 
0.000291 
0.000297 
0.000303 
0.000309 
0.000315 
0.000321 
0.000327 
0.000333 
0.000339 
0.000345 
0.000351 
0.000357 
0.000363 
0.000369 
0.000375 
0.000381 
0.000386 
0.000392 
0.000398 
0.000404 
0.000409 
0.000415 
0.000420 
0.000426 
0.000431 
0.000437 
0.000442 
0.000447 
0.000452 
0.000458 
0.000463 
0.000467 
0.000472 
0.000477 
0.000482 
0.000486 
0.000491 
0.000495 
0.000499 
0.000503 
0.000507 
0.000511 
0.000515 
0.000518 
0.000522 
0.000525 
0.000529 
0.000532 
0.000535 
0.000538 
0.000540 
0.000543 
0.000545 
0.000547 
0.000550 
0.000552 
0.000553 
0.000555 
0.000557 
0.000558 
0.000559 
0.000560 
0.000561 
0.000562 
0.000563 
0.000563 
0.000564 
0.000564 
0.000000 
0.000000 
0.000000 
0.000000 
0.000000 
0.000000 
0.000000 
0.000000 
0.000000 
0.000000 
0.000000 
0.000000 
0.000000 
0.000000 
0.000000 
0.000000 
0.000000 
0.000000 
0.000000 
0.000000 
0.000000 
0.000000 
0.000000 
0.000000 
0.000000 
0.000000 
0.000000 
0.000000 
0.000000 
0.000000 
0.000000 
0.000000 
0.000000 
0.000000 
0.000000 
0.000000 
0.000000 
0.000000 
0.000000 
0.000000 
0.000000 
0.000000 
0.000000 
0.000000 
0.000000 
0.000000 
0.000000 
0.000000 
0.000000 
0.000000 
0.000000 
0.000000 
0.000000 
0.000000 
0.000000 
0.000000 
0.000000 
0.000000 
0.000000 
0.000000 
0.000000 
0.000000 
0.000000 
0.000000 
0.000000 
0.000000 
0.000000 
0.000000 
0.000000 
0.000000 
0.000000 
0.000000 
0.000000 
0.000000 
0.000000 
0.000000 
0.000000 
0.000000 
0.000000 
0.000000 
0.000000 
0.000000 
0.000000 
0.000000 
0.000000 
0.000000 
0.000000 
0.000000 
0.000001 
0.000001 
0.000001 
0.000001 
0.000001 
0.000001 
0.000001 
0.000001 
0.000001 
0.000001 
0.000001 
0.000001 
0.000001 
0.000001 
0.000001 
0.000002 
0.000002 
0.000002 
0.000002 
0.000002 
0.000002 
0.000002 
0.000003 
0.000003 
0.000003 
0.000003 
0.000003 
0.000004 
0.000004 
0.000004 
0.000004 
0.000005 
0.000005 
0.000005 
0.000006 
0.000006 
0.000007 
0.000007 
0.000007 
0.000008 
0.000008 
0.000009 
0.000010 
0.000010 
0.000011 
0.000011 
0.000012 
0.000013 
0.000014 
0.000014 
0.000015 
0.000016 
0.000017 
0.000018 
0.000019 
0.000020 
0.000021 
0.000023 
0.000024 
0.000025 
0.000026 
0.000028 
0.000029 
0.000031 
0.000033 
0.000034 
0.000036 
0.000038 
0.000040 
0.000042 
0.000044 
0.000046 
0.000049 
0.000051 
0.000054 
0.000056 
0.000059 
0.000062 
0.000065 
0.000068 
0.000071 
0.000074 
0.000078 
0.000081 
0.000085 
0.000088 
0.000092 
0.000096 
0.000101 
0.000105 
0.000109 
0.000114 
0.000119 
0.000123 
0.000128 
0.000134 
0.000139 
0.000144 
0.000150 
0.000156 
0.000162 
0.000168 
0.000174 
0.000180 
0.000187 
0.000194 
0.000201 
0.000208 
0.000215 
0.000222 
0.000230 
0.000238 
0.000245 
0.000253 
0.000262 
0.000270 
0.000279 
0.000287 
0.000296 
0.000305 
0.000314 
0.000324 
0.000333 
0.000343 
0.000352 
0.000362 
0.000372 
0.000383 
0.000393 
0.000403 
0.000414 
0.000425 
0.000435 
0.000446 
0.000457 
0.000468 
0.000480 
0.000491 
0.000502 
0.000514 
0.000525 
0.000537 
0.000549 
0.000561 
0.000572 
0.000584 
0.000596 
0.000608 
0.000620 
0.000632 
0.000644 
0.000656 
0.000668 
0.000680 
0.000692 
0.000704 
0.000716 
0.000728 
0.000740 
0.000751 
0.000763 
0.000775 
0.000786 
0.000798 
0.000809 
0.000821 
0.000832 
0.000843 
0.000854 
0.000865 
0.000876 
0.000886 
0.000897 
0.000907 
0.000917 
0.000927 
0.000937 
0.000947 
0.000956 
0.000966 
0.000975 
0.000984 
0.000992 
0.001001 
0.001009 
0.001017 
0.001025 
0.001032 
0.001039 
0.001046 
0.001053 
0.001060 
0.001066 
0.001072 
0.001078 
0.001083 
0.001088 
0.001093 
0.001098 
0.001102 
0.001106 
0.001109 
0.001113 
0.001116 
0.001119 
0.001121 
0.001123 
0.001125 
0.001127 
0.001128 
0.001129 
0.001130 
0.001130 
0.000000 
0.000000 
0.000000 
0.000000 
0.000000 
0.000000 
0.000000 
0.000000 
0.000000 
0.000000 
0.000000 
0.000000 
0.000000 
0.000000 
0.000000 
0.000000 
0.000000 
0.000000 
0.000000 
0.000000 
0.000000 
0.000000 
0.000000 
0.000000 
0.000000 
0.000000 
0.000000 
0.000000 
0.000000 
0.000000 
0.000000 
0.000000 
0.000000 
0.000000 
0.000000 
0.000000 
0.000000 
0.000000 
0.000000 
0.000000 
0.000000 
0.000000 
0.000000 
0.000000 
0.000000 
0.000000 
0.000000 
0.000000 
0.000000 
0.000000 
0.000000 
0.000000 
0.000000 
0.000000 
0.000000 
0.000000 
0.000000 
0.000000 
0.000000 
0.000000 
0.000000 
0.000000 
0.000000 
0.000000 
0.000000 
0.000000 
0.000000 
0.000000 
0.000000 
0.000000 
0.000000 
0.000000 
0.000000 
0.000000 
0.000000 
0.000000 
0.000000 
0.000000 
0.000000 
0.000000 
0.000000 
0.000000 
0.000000 
0.000001 
0.000001 
0.000001 
0.000001 
0.000001 
0.000001 
0.000001 
0.000001 
0.000001 
0.000001 
0.000001 
0.000001 
0.000001 
0.000001 
0.000002 
0.000002 
0.000002 
0.000002 
0.000002 
0.000002 
0.000002 
0.000003 
0.000003 
0.000003 
0.000003 
0.000003 
0.000004 
0.000004 
0.000004 
0.000005 
0.000005 
0.000005 
0.000006 
0.000006 
0.000006 
0.000007 
0.000007 
0.000008 
0.000008 
0.000009 
0.000009 
0.000010 
0.000011 
0.000011 
0.000012 
0.000013 
0.000014 
0.000014 
0.000015 
0.000016 
0.000017 
0.000018 
0.000019 
0.000021 
0.000022 
0.000023 
0.000024 
0.000026 
0.000027 
0.000029 
0.000031 
0.000032 
0.000034 
0.000036 
0.000038 
0.000040 
0.000042 
0.000045 
0.000047 
0.000049 
0.000052 
0.000055 
0.000058 
0.000061 
0.000064 
0.000067 
0.000070 
0.000074 
0.000077 
0.000081 
0.000085 
0.000089 
0.000093 
0.000098 
0.000102 
0.000107 
0.000112 
0.000117 
0.000123 
0.000128 
0.000134 
0.000140 
0.000146 
0.000152 
0.000158 
0.000165 
0.000172 
0.000179 
0.000186 
0.000194 
0.000202 
0.000210 
0.000218 
0.000227 
0.000235 
0.000244 
0.000253 
0.000263 
0.000272 
0.000282 
0.000293 
0.000303 
0.000314 
0.000325 
0.000336 
0.000347 
0.000359 
0.000371 
0.000383 
0.000395 
0.000408 
0.000421 
0.000434 
0.000447 
0.000461 
0.000474 
0.000488 
0.000503 
0.000517 
0.000532 
0.000547 
0.000562 
0.000577 
0.000593 
0.000609 
0.000624 
0.000641 
0.000657 
0.000673 
0.000690 
0.000707 
0.000724 
0.000741 
0.000758 
0.000775 
0.000792 
0.000810 
0.000828 
0.000845 
0.000863 
0.000881 
0.000899 
0.000917 
0.000935 
0.000953 
0.000971 
0.000989 
0.001007 
0.001025 
0.001043 
0.001061 
0.001079 
0.001097 
0.001115 
0.001133 
0.001150 
0.001168 
0.001185 
0.001203 
0.001220 
0.001237 
0.001254 
0.001271 
0.001287 
0.001303 
0.001320 
0.001336 
0.001351 
0.001367 
0.001382 
0.001397 
0.001412 
0.001426 
0.001441 
0.001455 
0.001468 
0.001481 
0.001494 
0.001507 
0.001519 
0.001531 
0.001543 
0.001554 
0.001565 
0.001576 
0.001586 
0.001596 
0.001605 
0.001614 
0.001623 
0.001631 
0.001638 
0.001646 
0.001653 
0.001659 
0.001665 
0.001671 
0.001676 
0.001680 
0.001684 
0.001688 
0.001691 
0.001694 
0.001697 
0.001698 
0.001700 
0.001701 
0.001701 
0.000000 
0.000000 
0.000000 
0.000000 
0.000000 
0.000000 
0.000000 
0.000000 
0.000000 
0.000000 
0.000000 
0.000000 
0.000000 
0.000000 
0.000000 
0.000000 
0.000000 
0.000000 
0.000000 
0.000000 
0.000000 
0.000000 
0.000000 
0.000000 
0.000000 
0.000000 
0.000000 
0.000000 
0.000000 
0.000000 
0.000000 
0.000000 
0.000000 
0.000000 
0.000000 
0.000000 
0.000000 
0.000000 
0.000000 
0.000000 
0.000000 
0.000000 
0.000000 
0.000000 
0.000000 
0.000000 
0.000000 
0.000000 
0.000000 
0.000000 
0.000000 
0.000000 
0.000000 
0.000000 
0.000000 
0.000000 
0.000000 
0.000000 
0.000000 
0.000000 
0.000000 
0.000000 
0.000000 
0.000000 
0.000000 
0.000000 
0.000000 
0.000000 
0.000000 
0.000000 
0.000000 
0.000000 
0.000000 
0.000000 
0.000000 
0.000000 
0.000000 
0.000000 
0.000000 
0.000001 
0.000001 
0.000001 
0.000001 
0.000001 
0.000001 
0.000001 
0.000001 
0.000001 
0.000001 
0.000001 
0.000001 
0.000001 
0.000001 
0.000002 
0.000002 
0.000002 
0.000002 
0.000002 
0.000002 
0.000002 
0.000003 
0.000003 
0.000003 
0.000003 
0.000004 
0.000004 
0.000004 
0.000004 
0.000005 
0.000005 
0.000005 
0.000006 
0.000006 
0.000007 
0.000007 
0.000007 
0.000008 
0.000009 
0.000009 
0.000010 
0.000010 
0.000011 
0.000012 
0.000013 
0.000013 
0.000014 
0.000015 
0.000016 
0.000017 
0.000018 
0.000019 
0.000021 
0.000022 
0.000023 
0.000025 
0.000026 
0.000028 
0.000029 
0.000031 
0.000033 
0.000035 
0.000037 
0.000039 
0.000041 
0.000044 
0.000046 
0.000049 
0.000051 
0.000054 
0.000057 
0.000060 
0.000063 
0.000067 
0.000070 
0.000074 
0.000078 
0.000082 
0.000086 
0.000090 
0.000095 
0.000099 
0.000104 
0.000109 
0.000115 
0.000120 
0.000126 
0.000132 
0.000138 
0.000145 
0.000151 
0.000158 
0.000165 
0.000173 
0.000180 
0.000188 
0.000196 
0.000205 
0.000213 
0.000222 
0.000232 
0.000241 
0.000251 
0.000261 
0.000272 
0.000283 
0.000294 
0.000305 
0.000317 
0.000329 
0.000341 
0.000354 
0.000367 
0.000380 
0.000394 
0.000408 
0.000422 
0.000437 
0.000452 
0.000467 
0.000483 
0.000499 
0.000515 
0.000532 
0.000549 
0.000566 
0.000584 
0.000601 
0.000620 
0.000638 
0.000657 
0.000676 
0.000696 
0.000715 
0.000735 
0.000756 
0.000776 
0.000797 
0.000818 
0.000840 
0.000861 
0.000883 
0.000905 
0.000927 
0.000950 
0.000972 
0.000995 
0.001018 
0.001042 
0.001065 
0.001088 
0.001112 
0.001136 
0.001159 
0.001183 
0.001207 
0.001231 
0.001256 
0.001280 
0.001304 
0.001328 
0.001352 
0.001376 
0.001401 
0.001425 
0.001449 
0.001473 
0.001497 
0.001520 
0.001544 
0.001567 
0.001591 
0.001614 
0.001637 
0.001660 
0.001682 
0.001705 
0.001727 
0.001749 
0.001770 
0.001792 
0.001813 
0.001834 
0.001854 
0.001874 
0.001894 
0.001913 
0.001932 
0.001951 
0.001969 
0.001987 
0.002004 
0.002021 
0.002038 
0.002054 
0.002069 
0.002084 
0.002099 
0.002113 
0.002126 
0.002139 
0.002152 
0.002164 
0.002175 
0.002186 
0.002196 
0.002206 
0.002215 
0.002224 
0.002232 
0.002239 
0.002246 
0.002252 
0.002258 
0.002263 
0.002267 
0.002271 
0.002274 
0.002277 
0.002278 
0.002280 
0.002280 
0.000000 
0.000000 
0.000000 
0.000000 
0.000000 
0.000000 
0.000000 
0.000000 
0.000000 
0.000000 
0.000000 
0.000000 
0.000000 
0.000000 
0.000000 
0.000000 
0.000000 
0.000000 
0.000000 
0.000000 
0.000000 
0.000000 
0.000000 
0.000000 
0.000000 
0.000000 
0.000000 
0.000000 
0.000000 
0.000000 
0.000000 
0.000000 
0.000000 
0.000000 
0.000000 
0.000000 
0.000000 
0.000000 
0.000000 
0.000000 
0.000000 
0.000000 
0.000000 
0.000000 
0.000000 
0.000000 
0.000000 
0.000000 
0.000000 
0.000000 
0.000000 
0.000000 
0.000000 
0.000000 
0.000000 
0.000000 
0.000000 
0.000000 
0.000000 
0.000000 
0.000000 
0.000000 
0.000000 
0.000000 
0.000000 
0.000000 
0.000000 
0.000000 
0.000000 
0.000000 
0.000000 
0.000000 
0.000000 
0.000000 
0.000000 
0.000000 
0.000001 
0.000001 
0.000001 
0.000001 
0.000001 
0.000001 
0.000001 
0.000001 
0.000001 
0.000001 
0.000001 
0.000001 
0.000001 
0.000001 
0.000002 
0.000002 
0.000002 
0.000002 
0.000002 
0.000002 
0.000003 
0.000003 
0.000003 
0.000003 
0.000003 
0.000004 
0.000004 
0.000004 
0.000004 
0.000005 
0.000005 
0.000006 
0.000006 
0.000006 
0.000007 
0.000007 
0.000008 
0.000008 
0.000009 
0.000010 
0.000010 
0.000011 
0.000012 
0.000012 
0.000013 
0.000014 
0.000015 
0.000016 
0.000017 
0.000018 
0.000019 
0.000021 
0.000022 
0.000023 
0.000025 
0.000026 
0.000028 
0.000029 
0.000031 
0.000033 
0.000035 
0.000037 
0.000039 
0.000042 
0.000044 
0.000047 
0.000049 
0.000052 
0.000055 
0.000058 
0.000062 
0.000065 
0.000069 
0.000072 
0.000076 
0.000080 
0.000085 
0.000089 
0.000094 
0.000099 
0.000104 
0.000109 
0.000114 
0.000120 
0.000126 
0.000132 
0.000139 
0.000146 
0.000153 
0.000160 
0.000167 
0.000175 
0.000183 
0.000192 
0.000200 
0.000209 
0.000219 
0.000228 
0.000238 
0.000249 
0.000259 
0.000270 
0.000282 
0.000294 
0.000306 
0.000318 
0.000331 
0.000344 
0.000358 
0.000372 
0.000386 
0.000401 
0.000416 
0.000432 
0.000448 
0.000464 
0.000481 
0.000499 
0.000516 
0.000534 
0.000553 
0.000572 
0.000591 
0.000611 
0.000631 
0.000652 
0.000673 
0.000694 
0.000716 
0.000738 
0.000761 
0.000784 
0.000807 
0.000831 
0.000855 
0.000879 
0.000904 
0.000930 
0.000955 
0.000981 
0.001007 
0.001034 
0.001061 
0.001088 
0.001115 
0.001143 
0.001171 
0.001200 
0.001228 
0.001257 
0.001286 
0.001315 
0.001344 
0.001374 
0.001404 
0.001433 
0.001463 
0.001493 
0.001524 
0.001554 
0.001584 
0.001615 
0.001645 
0.001675 
0.001706 
0.001736 
0.001766 
0.001797 
0.001827 
0.001857 
0.001887 
0.001917 
0.001946 
0.001976 
0.002005 
0.002034 
0.002063 
0.002092 
0.002120 
0.002148 
0.002176 
0.002204 
0.002231 
0.002258 
0.002284 
0.002310 
0.002336 
0.002361 
0.002386 
0.002410 
0.002434 
0.002457 
0.002480 
0.002502 
0.002524 
0.002545 
0.002566 
0.002586 
0.002605 
0.002624 
0.002642 
0.002660 
0.002677 
0.002693 
0.002709 
0.002724 
0.002738 
0.002752 
0.002765 
0.002777 
0.002788 
0.002799 
0.002809 
0.002818 
0.002827 
0.002835 
0.002842 
0.002848 
0.002853 
0.002858 
0.002862 
0.002865 
0.002867 
0.002869 
0.002870 
0.000000 
0.000000 
0.000000 
0.000000 
0.000000 
0.000000 
0.000000 
0.000000 
0.000000 
0.000000 
0.000000 
0.000000 
0.000000 
0.000000 
0.000000 
0.000000 
0.000000 
0.000000 
0.000000 
0.000000 
0.000000 
0.000000 
0.000000 
0.000000 
0.000000 
0.000000 
0.000000 
0.000000 
0.000000 
0.000000 
0.000000 
0.000000 
0.000000 
0.000000 
0.000000 
0.000000 
0.000000 
0.000000 
0.000000 
0.000000 
0.000000 
0.000000 
0.000000 
0.000000 
0.000000 
0.000000 
0.000000 
0.000000 
0.000000 
0.000000 
0.000000 
0.000000 
0.000000 
0.000000 
0.000000 
0.000000 
0.000000 
0.000000 
0.000000 
0.000000 
0.000000 
0.000000 
0.000000 
0.000000 
0.000000 
0.000000 
0.000000 
0.000000 
0.000000 
0.000000 
0.000000 
0.000000 
0.000000 
0.000001 
0.000001 
0.000001 
0.000001 
0.000001 
0.000001 
0.000001 
0.000001 
0.000001 
0.000001 
0.000001 
0.000001 
0.000001 
0.000001 
0.000002 
0.000002 
0.000002 
0.000002 
0.000002 
0.000002 
0.000002 
0.000003 
0.000003 
0.000003 
0.000003 
0.000004 
0.000004 
0.000004 
0.000004 
0.000005 
0.000005 
0.000005 
0.000006 
0.000006 
0.000007 
0.000007 
0.000008 
0.000008 
0.000009 
0.000010 
0.000010 
0.000011 
0.000012 
0.000012 
0.000013 
0.000014 
0.000015 
0.000016 
0.000017 
0.000018 
0.000020 
0.000021 
0.000022 
0.000024 
0.000025 
0.000027 
0.000028 
0.000030 
0.000032 
0.000034 
0.000036 
0.000038 
0.000041 
0.000043 
0.000046 
0.000048 
0.000051 
0.000054 
0.000057 
0.000060 
0.000064 
0.000068 
0.000071 
0.000075 
0.000079 
0.000084 
0.000088 
0.000093 
0.000098 
0.000103 
0.000109 
0.000114 
0.000120 
0.000127 
0.000133 
0.000140 
0.000147 
0.000154 
0.000162 
0.000169 
0.000178 
0.000186 
0.000195 
0.000204 
0.000214 
0.000224 
0.000234 
0.000245 
0.000256 
0.000267 
0.000279 
0.000291 
0.000303 
0.000317 
0.000330 
0.000344 
0.000358 
0.000373 
0.000388 
0.000404 
0.000420 
0.000436 
0.000453 
0.000471 
0.000489 
0.000507 
0.000526 
0.000546 
0.000566 
0.000586 
0.000607 
0.000629 
0.000651 
0.000673 
0.000696 
0.000720 
0.000744 
0.000768 
0.000793 
0.000819 
0.000845 
0.000871 
0.000898 
0.000926 
0.000953 
0.000982 
0.001011 
0.001040 
0.001070 
0.001100 
0.001130 
0.001161 
0.001193 
0.001225 
0.001257 
0.001289 
0.001322 
0.001356 
0.001389 
0.001423 
0.001457 
0.001492 
0.001527 
0.001562 
0.001597 
0.001633 
0.001668 
0.001704 
0.001740 
0.001777 
0.001813 
0.001849 
0.001886 
0.001923 
0.001959 
0.001996 
0.002033 
0.002069 
0.002106 
0.002143 
0.002179 
0.002216 
0.002252 
0.002288 
0.002324 
0.002360 
0.002396 
0.002431 
0.002466 
0.002501 
0.002535 
0.002570 
0.002604 
0.002637 
0.002670 
0.002703 
0.002735 
0.002767 
0.002798 
0.002829 
0.002860 
0.002889 
0.002919 
0.002947 
0.002975 
0.003003 
0.003030 
0.003056 
0.003081 
0.003106 
0.003130 
0.003154 
0.003177 
0.003199 
0.003220 
0.003240 
0.003260 
0.003279 
0.003297 
0.003314 
0.003330 
0.003346 
0.003361 
0.003374 
0.003387 
0.003399 
0.003410 
0.003421 
0.003430 
0.003438 
0.003446 
0.003453 
0.003458 
0.003463 
0.003467 
0.003469 
0.003471 
0.003472 
0.000000 
0.000000 
0.000000 
0.000000 
0.000000 
0.000000 
0.000000 
0.000000 
0.000000 
0.000000 
0.000000 
0.000000 
0.000000 
0.000000 
0.000000 
0.000000 
0.000000 
0.000000 
0.000000 
0.000000 
0.000000 
0.000000 
0.000000 
0.000000 
0.000000 
0.000000 
0.000000 
0.000000 
0.000000 
0.000000 
0.000000 
0.000000 
0.000000 
0.000000 
0.000000 
0.000000 
0.000000 
0.000000 
0.000000 
0.000000 
0.000000 
0.000000 
0.000000 
0.000000 
0.000000 
0.000000 
0.000000 
0.000000 
0.000000 
0.000000 
0.000000 
0.000000 
0.000000 
0.000000 
0.000000 
0.000000 
0.000000 
0.000000 
0.000000 
0.000000 
0.000000 
0.000000 
0.000000 
0.000000 
0.000000 
0.000000 
0.000000 
0.000000 
0.000000 
0.000000 
0.000000 
0.000001 
0.000001 
0.000001 
0.000001 
0.000001 
0.000001 
0.000001 
0.000001 
0.000001 
0.000001 
0.000001 
0.000001 
0.000001 
0.000001 
0.000002 
0.000002 
0.000002 
0.000002 
0.000002 
0.000002 
0.000003 
0.000003 
0.000003 
0.000003 
0.000003 
0.000004 
0.000004 
0.000004 
0.000005 
0.000005 
0.000005 
0.000006 
0.000006 
0.000007 
0.000007 
0.000008 
0.000008 
0.000009 
0.000009 
0.000010 
0.000011 
0.000011 
0.000012 
0.000013 
0.000014 
0.000015 
0.000016 
0.000017 
0.000018 
0.000019 
0.000021 
0.000022 
0.000023 
0.000025 
0.000026 
0.000028 
0.000030 
0.000032 
0.000034 
0.000036 
0.000038 
0.000041 
0.000043 
0.000046 
0.000048 
0.000051 
0.000054 
0.000058 
0.000061 
0.000064 
0.000068 
0.000072 
0.000076 
0.000080 
0.000085 
0.000090 
0.000095 
0.000100 
0.000105 
0.000111 
0.000117 
0.000123 
0.000130 
0.000136 
0.000143 
0.000151 
0.000158 
0.000166 
0.000175 
0.000183 
0.000192 
0.000202 
0.000212 
0.000222 
0.000232 
0.000243 
0.000254 
0.000266 
0.000278 
0.000291 
0.000304 
0.000318 
0.000332 
0.000346 
0.000361 
0.000376 
0.000392 
0.000409 
0.000426 
0.000443 
0.000461 
0.000480 
0.000499 
0.000519 
0.000539 
0.000560 
0.000581 
0.000603 
0.000625 
0.000648 
0.000672 
0.000696 
0.000721 
0.000747 
0.000773 
0.000799 
0.000826 
0.000854 
0.000883 
0.000912 
0.000941 
0.000971 
0.001002 
0.001033 
0.001065 
0.001098 
0.001130 
0.001164 
0.001198 
0.001233 
0.001268 
0.001303 
0.001339 
0.001376 
0.001413 
0.001451 
0.001489 
0.001527 
0.001566 
0.001605 
0.001645 
0.001685 
0.001725 
0.001766 
0.001807 
0.001848 
0.001890 
0.001932 
0.001974 
0.002016 
0.002058 
0.002101 
0.002144 
0.002187 
0.002230 
0.002273 
0.002316 
0.002359 
0.002402 
0.002446 
0.002489 
0.002532 
0.002575 
0.002617 
0.002660 
0.002703 
0.002745 
0.002787 
0.002829 
0.002870 
0.002911 
0.002952 
0.002993 
0.003033 
0.003073 
0.003112 
0.003151 
0.003189 
0.003227 
0.003264 
0.003301 
0.003337 
0.003373 
0.003408 
0.003442 
0.003476 
0.003509 
0.003541 
0.003572 
0.003603 
0.003633 
0.003662 
0.003690 
0.003718 
0.003744 
0.003770 
0.003795 
0.003819 
0.003842 
0.003864 
0.003885 
0.003905 
0.003924 
0.003942 
0.003960 
0.003976 
0.003991 
0.004005 
0.004018 
0.004030 
0.004041 
0.004051 
0.004059 
0.004067 
0.004074 
0.004079 
0.004084 
0.004087 
0.004089 
0.004090 
0.000000 
0.000000 
0.000000 
0.000000 
0.000000 
0.000000 
0.000000 
0.000000 
0.000000 
0.000000 
0.000000 
0.000000 
0.000000 
0.000000 
0.000000 
0.000000 
0.000000 
0.000000 
0.000000 
0.000000 
0.000000 
0.000000 
0.000000 
0.000000 
0.000000 
0.000000 
0.000000 
0.000000 
0.000000 
0.000000 
0.000000 
0.000000 
0.000000 
0.000000 
0.000000 
0.000000 
0.000000 
0.000000 
0.000000 
0.000000 
0.000000 
0.000000 
0.000000 
0.000000 
0.000000 
0.000000 
0.000000 
0.000000 
0.000000 
0.000000 
0.000000 
0.000000 
0.000000 
0.000000 
0.000000 
0.000000 
0.000000 
0.000000 
0.000000 
0.000000 
0.000000 
0.000000 
0.000000 
0.000000 
0.000000 
0.000000 
0.000000 
0.000000 
0.000000 
0.000001 
0.000001 
0.000001 
0.000001 
0.000001 
0.000001 
0.000001 
0.000001 
0.000001 
0.000001 
0.000001 
0.000001 
0.000001 
0.000001 
0.000002 
0.000002 
0.000002 
0.000002 
0.000002 
0.000002 
0.000003 
0.000003 
0.000003 
0.000003 
0.000003 
0.000004 
0.000004 
0.000004 
0.000005 
0.000005 
0.000005 
0.000006 
0.000006 
0.000007 
0.000007 
0.000008 
0.000008 
0.000009 
0.000009 
0.000010 
0.000011 
0.000012 
0.000012 
0.000013 
0.000014 
0.000015 
0.000016 
0.000017 
0.000019 
0.000020 
0.000021 
0.000023 
0.000024 
0.000026 
0.000027 
0.000029 
0.000031 
0.000033 
0.000035 
0.000037 
0.000040 
0.000042 
0.000045 
0.000047 
0.000050 
0.000053 
0.000057 
0.000060 
0.000064 
0.000067 
0.000071 
0.000075 
0.000080 
0.000084 
0.000089 
0.000094 
0.000100 
0.000105 
0.000111 
0.000117 
0.000123 
0.000130 
0.000137 
0.000144 
0.000152 
0.000160 
0.000168 
0.000176 
0.000185 
0.000195 
0.000204 
0.000215 
0.000225 
0.000236 
0.000247 
0.000259 
0.000271 
0.000284 
0.000297 
0.000311 
0.000325 
0.000340 
0.000355 
0.000371 
0.000387 
0.000404 
0.000422 
0.000440 
0.000458 
0.000477 
0.000497 
0.000518 
0.000539 
0.000560 
0.000582 
0.000605 
0.000629 
0.000653 
0.000678 
0.000703 
0.000729 
0.000756 
0.000784 
0.000812 
0.000841 
0.000870 
0.000901 
0.000932 
0.000963 
0.000995 
0.001028 
0.001062 
0.001096 
0.001131 
0.001167 
0.001203 
0.001240 
0.001278 
0.001316 
0.001355 
0.001394 
0.001434 
0.001475 
0.001516 
0.001558 
0.001601 
0.001644 
0.001687 
0.001731 
0.001775 
0.001820 
0.001866 
0.001912 
0.001958 
0.002005 
0.002052 
0.002099 
0.002147 
0.002195 
0.002243 
0.002292 
0.002340 
0.002389 
0.002439 
0.002488 
0.002538 
0.002587 
0.002637 
0.002687 
0.002736 
0.002786 
0.002836 
0.002886 
0.002935 
0.002985 
0.003034 
0.003083 
0.003132 
0.003181 
0.003229 
0.003277 
0.003325 
0.003373 
0.003420 
0.003466 
0.003512 
0.003558 
0.003603 
0.003648 
0.003692 
0.003735 
0.003778 
0.003821 
0.003862 
0.003903 
0.003943 
0.003983 
0.004021 
0.004059 
0.004096 
0.004132 
0.004167 
0.004202 
0.004235 
0.004267 
0.004299 
0.004330 
0.004359 
0.004388 
0.004415 
0.004441 
0.004467 
0.004491 
0.004514 
0.004536 
0.004557 
0.004576 
0.004595 
0.004612 
0.004628 
0.004643 
0.004657 
0.004670 
0.004681 
0.004691 
0.004700 
0.004707 
0.004714 
0.004719 
0.004723 
0.004725 
0.004726 
0.000000 
0.000000 
0.000000 
0.000000 
0.000000 
0.000000 
0.000000 
0.000000 
0.000000 
0.000000 
0.000000 
0.000000 
0.000000 
0.000000 
0.000000 
0.000000 
0.000000 
0.000000 
0.000000 
0.000000 
0.000000 
0.000000 
0.000000 
0.000000 
0.000000 
0.000000 