# vtk DataFile Version 3.0
results.vtk
ASCII
DATASET RECTILINEAR_GRID
DIMENSIONS 301 301 1
X_COORDINATES 301 double
0.000000 0.003333 0.006667 0.010000 0.013333 0.016667 0.020000 0.023333 0.026667 0.030000 0.033333 0.036667 0.040000 0.043333 0.046667 0.050000 0.053333 0.056667 0.060000 0.063333 0.066667 0.070000 0.073333 0.076667 0.080000 0.083333 0.086667 0.090000 0.093333 0.096667 0.100000 0.103333 0.106667 0.110000 0.113333 0.116667 0.120000 0.123333 0.126667 0.130000 0.133333 0.136667 0.140000 0.143333 0.146667 0.150000 0.153333 0.156667 0.160000 0.163333 0.166667 0.170000 0.173333 0.176667 0.180000 0.183333 0.186667 0.190000 0.193333 0.196667 0.200000 0.203333 0.206667 0.210000 0.213333 0.216667 0.220000 0.223333 0.226667 0.230000 0.233333 0.236667 0.240000 0.243333 0.246667 0.250000 0.253333 0.256667 0.260000 0.263333 0.266667 0.270000 0.273333 0.276667 0.280000 0.283333 0.286667 0.290000 0.293333 0.296667 0.300000 0.303333 0.306667 0.310000 0.313333 0.316667 0.320000 0.323333 0.326667 0.330000 0.333333 0.336667 0.340000 0.343333 0.346667 0.350000 0.353333 0.356667 0.360000 0.363333 0.366667 0.370000 0.373333 0.376667 0.380000 0.383333 0.386667 0.390000 0.393333 0.396667 0.400000 0.403333 0.406667 0.410000 0.413333 0.416667 0.420000 0.423333 0.426667 0.430000 0.433333 0.436667 0.440000 0.443333 0.446667 0.450000 0.453333 0.456667 0.460000 0.463333 0.466667 0.470000 0.473333 0.476667 0.480000 0.483333 0.486667 0.490000 0.493333 0.496667 0.500000 0.503333 0.506667 0.510000 0.513333 0.516667 0.520000 0.523333 0.526667 0.530000 0.533333 0.536667 0.540000 0.543333 0.546667 0.550000 0.553333 0.556667 0.560000 0.563333 0.566667 0.570000 0.573333 0.576667 0.580000 0.583333 0.586667 0.590000 0.593333 0.596667 0.600000 0.603333 0.606667 0.610000 0.613333 0.616667 0.620000 0.623333 0.626667 0.630000 0.633333 0.636667 0.640000 0.643333 0.646667 0.650000 0.653333 0.656667 0.660000 0.663333 0.666667 0.670000 0.673333 0.676667 0.680000 0.683333 0.686667 0.690000 0.693333 0.696667 0.700000 0.703333 0.706667 0.710000 0.713333 0.716667 0.720000 0.723333 0.726667 0.730000 0.733333 0.736667 0.740000 0.743333 0.746667 0.750000 0.753333 0.756667 0.760000 0.763333 0.766667 0.770000 0.773333 0.776667 0.780000 0.783333 0.786667 0.790000 0.793333 0.796667 0.800000 0.803333 0.806667 0.810000 0.813333 0.816667 0.820000 0.823333 0.826667 0.830000 0.833333 0.836667 0.840000 0.843333 0.846667 0.850000 0.853333 0.856667 0.860000 0.863333 0.866667 0.870000 0.873333 0.876667 0.880000 0.883333 0.886667 0.890000 0.893333 0.896667 0.900000 0.903333 0.906667 0.910000 0.913333 0.916667 0.920000 0.923333 0.926667 0.930000 0.933333 0.936667 0.940000 0.943333 0.946667 0.950000 0.953333 0.956667 0.960000 0.963333 0.966667 0.970000 0.973333 0.976667 0.980000 0.983333 0.986667 0.990000 0.993333 0.996667 1.000000 
Y_COORDINATES 301 double
0.000000 0.003333 0.006667 0.010000 0.013333 0.016667 0.020000 0.023333 0.026667 0.030000 0.033333 0.036667 0.040000 0.043333 0.046667 0.050000 0.053333 0.056667 0.060000 0.063333 0.066667 0.070000 0.073333 0.076667 0.080000 0.083333 0.086667 0.090000 0.093333 0.096667 0.100000 0.103333 0.106667 0.110000 0.113333 0.116667 0.120000 0.123333 0.126667 0.130000 0.133333 0.136667 0.140000 0.143333 0.146667 0.150000 0.153333 0.156667 0.160000 0.163333 0.166667 0.170000 0.173333 0.176667 0.180000 0.183333 0.186667 0.190000 0.193333 0.196667 0.200000 0.203333 0.206667 0.210000 0.213333 0.216667 0.220000 0.223333 0.226667 0.230000 0.233333 0.236667 0.240000 0.243333 0.246667 0.250000 0.253333 0.256667 0.260000 0.263333 0.266667 0.270000 0.273333 0.276667 0.280000 0.283333 0.286667 0.290000 0.293333 0.296667 0.300000 0.303333 0.306667 0.310000 0.313333 0.316667 0.320000 0.323333 0.326667 0.330000 0.333333 0.336667 0.340000 0.343333 0.346667 0.350000 0.353333 0.356667 0.360000 0.363333 0.366667 0.370000 0.373333 0.376667 0.380000 0.383333 0.386667 0.390000 0.393333 0.396667 0.400000 0.403333 0.406667 0.410000 0.413333 0.416667 0.420000 0.423333 0.426667 0.430000 0.433333 0.436667 0.440000 0.443333 0.446667 0.450000 0.453333 0.456667 0.460000 0.463333 0.466667 0.470000 0.473333 0.476667 0.480000 0.483333 0.486667 0.490000 0.493333 0.496667 0.500000 0.503333 0.506667 0.510000 0.513333 0.516667 0.520000 0.523333 0.526667 0.530000 0.533333 0.536667 0.540000 0.543333 0.546667 0.550000 0.553333 0.556667 0.560000 0.563333 0.566667 0.570000 0.573333 0.576667 0.580000 0.583333 0.586667 0.590000 0.593333 0.596667 0.600000 0.603333 0.606667 0.610000 0.613333 0.616667 0.620000 0.623333 0.626667 0.630000 0.633333 0.636667 0.640000 0.643333 0.646667 0.650000 0.653333 0.656667 0.660000 0.663333 0.666667 0.670000 0.673333 0.676667 0.680000 0.683333 0.686667 0.690000 0.693333 0.696667 0.700000 0.703333 0.706667 0.710000 0.713333 0.716667 0.720000 0.723333 0.726667 0.730000 0.733333 0.736667 0.740000 0.743333 0.746667 0.750000 0.753333 0.756667 0.760000 0.763333 0.766667 0.770000 0.773333 0.776667 0.780000 0.783333 0.786667 0.790000 0.793333 0.796667 0.800000 0.803333 0.806667 0.810000 0.813333 0.816667 0.820000 0.823333 0.826667 0.830000 0.833333 0.836667 0.840000 0.843333 0.846667 0.850000 0.853333 0.856667 0.860000 0.863333 0.866667 0.870000 0.873333 0.876667 0.880000 0.883333 0.886667 0.890000 0.893333 0.896667 0.900000 0.903333 0.906667 0.910000 0.913333 0.916667 0.920000 0.923333 0.926667 0.930000 0.933333 0.936667 0.940000 0.943333 0.946667 0.950000 0.953333 0.956667 0.960000 0.963333 0.966667 0.970000 0.973333 0.976667 0.980000 0.983333 0.986667 0.990000 0.993333 0.996667 1.000000 
Z_COORDINATES 1 double
0
POINT_DATA 90601 
FIELD FieldData 1 
Concentração 1 90601 double 
0.000000 
0.000000 
0.000000 
0.000000 
0.000000 
0.000000 
0.000000 
0.000000 
0.000000 
0.000000 
0.000000 
0.000000 
0.000000 
0.000000 
0.000000 
0.000000 
0.000000 
0.000000 
0.000000 
0.000000 
0.000000 
0.000000 
0.000000 
0.000000 
0.000000 
0.000000 
0.000000 
0.000000 
0.000000 
0.000000 
0.000000 
0.000000 
0.000000 
0.000000 
0.000000 
0.000000 
0.000000 
0.000000 
0.000000 
0.000000 
0.000000 
0.000000 
0.000000 
0.000000 
0.000000 
0.000000 
0.000000 
0.000000 
0.000000 
0.000000 
0.000000 
0.000000 
0.000000 
0.000000 
0.000000 
0.000000 
0.000000 
0.000000 
0.000000 
0.000000 
0.000000 
0.000000 
0.000000 
0.000000 
0.000000 
0.000000 
0.000000 
0.000000 
0.000000 
0.000001 
0.000001 
0.000001 
0.000001 
0.000001 
0.000001 
0.000001 
0.000001 
0.000001 
0.000001 
0.000001 
0.000001 
0.000001 
0.000001 
0.000002 
0.000002 
0.000002 
0.000002 
0.000002 
0.000002 
0.000002 
0.000003 
0.000003 
0.000003 
0.000003 
0.000003 
0.000004 
0.000004 
0.000004 
0.000004 
0.000005 
0.000005 
0.000005 
0.000006 
0.000006 
0.000007 
0.000007 
0.000008 
0.000008 
0.000009 
0.000009 
0.000010 
0.000010 
0.000011 
0.000012 
0.000013 
0.000013 
0.000014 
0.000015 
0.000016 
0.000017 
0.000018 
0.000019 
0.000020 
0.000022 
0.000023 
0.000024 
0.000026 
0.000027 
0.000029 
0.000031 
0.000032 
0.000034 
0.000036 
0.000038 
0.000040 
0.000042 
0.000045 
0.000047 
0.000050 
0.000052 
0.000055 
0.000058 
0.000061 
0.000064 
0.000068 
0.000071 
0.000074 
0.000078 
0.000082 
0.000086 
0.000090 
0.000095 
0.000099 
0.000104 
0.000109 
0.000114 
0.000119 
0.000124 
0.000130 
0.000136 
0.000141 
0.000148 
0.000154 
0.000161 
0.000167 
0.000174 
0.000181 
0.000189 
0.000196 
0.000204 
0.000212 
0.000221 
0.000229 
0.000238 
0.000247 
0.000256 
0.000266 
0.000275 
0.000285 
0.000295 
0.000306 
0.000316 
0.000327 
0.000338 
0.000350 
0.000361 
0.000373 
0.000385 
0.000397 
0.000410 
0.000422 
0.000435 
0.000448 
0.000462 
0.000475 
0.000489 
0.000503 
0.000517 
0.000531 
0.000546 
0.000561 
0.000576 
0.000591 
0.000606 
0.000621 
0.000637 
0.000652 
0.000668 
0.000684 
0.000700 
0.000717 
0.000733 
0.000749 
0.000766 
0.000783 
0.000799 
0.000816 
0.000833 
0.000850 
0.000867 
0.000884 
0.000901 
0.000919 
0.000936 
0.000953 
0.000970 
0.000987 
0.001005 
0.001022 
0.001039 
0.001056 
0.001073 
0.001090 
0.001107 
0.001124 
0.001141 
0.001158 
0.001174 
0.001191 
0.001207 
0.001224 
0.001240 
0.001256 
0.001272 
0.001288 
0.001304 
0.001319 
0.001334 
0.001350 
0.001365 
0.001380 
0.001394 
0.001409 
0.001423 
0.001437 
0.001451 
0.001464 
0.001478 
0.001491 
0.001504 
0.001517 
0.001529 
0.001541 
0.001553 
0.001565 
0.001576 
0.001587 
0.001598 
0.001609 
0.001619 
0.001629 
0.001639 
0.001648 
0.001657 
0.001666 
0.001675 
0.001683 
0.001691 
0.001699 
0.001706 
0.001713 
0.001720 
0.001726 
0.001732 
0.001738 
0.001743 
0.001748 
0.001753 
0.001757 
0.001761 
0.001765 
0.001769 
0.001772 
0.001774 
0.001777 
0.001779 
0.001780 
0.001782 
0.001783 
0.001783 
0.001784 
0.000000 
0.000000 
0.000000 
0.000000 
0.000000 
0.000000 
0.000000 
0.000000 
0.000000 
0.000000 
0.000000 
0.000000 
0.000000 
0.000000 
0.000000 
0.000000 
0.000000 
0.000000 
0.000000 
0.000000 
0.000000 
0.000000 
0.000000 
0.000000 
0.000000 
0.000000 
0.000000 
0.000000 
0.000000 
0.000000 
0.000000 
0.000000 
0.000000 
0.000000 
0.000000 
0.000000 
0.000000 
0.000000 
0.000000 
0.000000 
0.000000 
0.000000 
0.000000 
0.000000 
0.000000 
0.000000 
0.000000 
0.000000 
0.000000 
0.000000 
0.000000 
0.000000 
0.000000 
0.000000 
0.000000 
0.000000 
0.000000 
0.000000 
0.000000 
0.000000 
0.000000 
0.000001 
0.000001 
0.000001 
0.000001 
0.000001 
0.000001 
0.000001 
0.000001 
0.000001 
0.000001 
0.000001 
0.000001 
0.000001 
0.000002 
0.000002 
0.000002 
0.000002 
0.000002 
0.000002 
0.000002 
0.000003 
0.000003 
0.000003 
0.000003 
0.000004 
0.000004 
0.000004 
0.000004 
0.000005 
0.000005 
0.000005 
0.000006 
0.000006 
0.000007 
0.000007 
0.000008 
0.000008 
0.000009 
0.000009 
0.000010 
0.000011 
0.000012 
0.000012 
0.000013 
0.000014 
0.000015 
0.000016 
0.000017 
0.000018 
0.000020 
0.000021 
0.000022 
0.000024 
0.000025 
0.000027 
0.000029 
0.000030 
0.000032 
0.000034 
0.000036 
0.000039 
0.000041 
0.000044 
0.000046 
0.000049 
0.000052 
0.000055 
0.000058 
0.000061 
0.000065 
0.000069 
0.000072 
0.000077 
0.000081 
0.000085 
0.000090 
0.000095 
0.000100 
0.000105 
0.000111 
0.000117 
0.000123 
0.000129 
0.000136 
0.000142 
0.000150 
0.000157 
0.000165 
0.000173 
0.000181 
0.000190 
0.000199 
0.000208 
0.000218 
0.000228 
0.000238 
0.000249 
0.000260 
0.000272 
0.000284 
0.000296 
0.000309 
0.000322 
0.000336 
0.000350 
0.000364 
0.000379 
0.000394 
0.000410 
0.000426 
0.000443 
0.000460 
0.000477 
0.000495 
0.000514 
0.000533 
0.000552 
0.000572 
0.000592 
0.000613 
0.000634 
0.000656 
0.000678 
0.000701 
0.000724 
0.000748 
0.000772 
0.000796 
0.000821 
0.000847 
0.000872 
0.000899 
0.000925 
0.000952 
0.000980 
0.001008 
0.001036 
0.001065 
0.001094 
0.001123 
0.001153 
0.001183 
0.001214 
0.001245 
0.001276 
0.001307 
0.001339 
0.001371 
0.001403 
0.001435 
0.001468 
0.001501 
0.001534 
0.001567 
0.001601 
0.001635 
0.001668 
0.001702 
0.001736 
0.001770 
0.001805 
0.001839 
0.001873 
0.001908 
0.001942 
0.001976 
0.002011 
0.002045 
0.002079 
0.002113 
0.002147 
0.002181 
0.002215 
0.002249 
0.002283 
0.002316 
0.002349 
0.002383 
0.002415 
0.002448 
0.002480 
0.002513 
0.002544 
0.002576 
0.002607 
0.002638 
0.002669 
0.002699 
0.002729 
0.002759 
0.002788 
0.002817 
0.002845 
0.002873 
0.002901 
0.002928 
0.002955 
0.002981 
0.003007 
0.003032 
0.003057 
0.003081 
0.003105 
0.003128 
0.003151 
0.003173 
0.003195 
0.003216 
0.003237 
0.003257 
0.003276 
0.003295 
0.003313 
0.003331 
0.003348 
0.003364 
0.003380 
0.003395 
0.003410 
0.003424 
0.003437 
0.003450 
0.003462 
0.003473 
0.003484 
0.003494 
0.003503 
0.003512 
0.003520 
0.003527 
0.003534 
0.003540 
0.003546 
0.003551 
0.003555 
0.003558 
0.003561 
0.003563 
0.003564 
0.003565 
0.000000 
0.000000 
0.000000 
0.000000 
0.000000 
0.000000 
0.000000 
0.000000 
0.000000 
0.000000 
0.000000 
0.000000 
0.000000 
0.000000 
0.000000 
0.000000 
0.000000 
0.000000 
0.000000 
0.000000 
0.000000 
0.000000 
0.000000 
0.000000 
0.000000 
0.000000 
0.000000 
0.000000 
0.000000 
0.000000 
0.000000 
0.000000 
0.000000 
0.000000 
0.000000 
0.000000 
0.000000 
0.000000 
0.000000 
0.000000 
0.000000 
0.000000 
0.000000 
0.000000 
0.000000 
0.000000 
0.000000 
0.000000 
0.000000 
0.000000 
0.000000 
0.000000 
0.000000 
0.000000 
0.000000 
0.000000 
0.000001 
0.000001 
0.000001 
0.000001 
0.000001 
0.000001 
0.000001 
0.000001 
0.000001 
0.000001 
0.000001 
0.000001 
0.000001 
0.000002 
0.000002 
0.000002 
0.000002 
0.000002 
0.000002 
0.000002 
0.000003 
0.000003 
0.000003 
0.000003 
0.000004 
0.000004 
0.000004 
0.000005 
0.000005 
0.000005 
0.000006 
0.000006 
0.000007 
0.000007 
0.000008 
0.000008 
0.000009 
0.000009 
0.000010 
0.000011 
0.000012 
0.000013 
0.000013 
0.000014 
0.000015 
0.000016 
0.000018 
0.000019 
0.000020 
0.000021 
0.000023 
0.000024 
0.000026 
0.000028 
0.000030 
0.000032 
0.000034 
0.000036 
0.000038 
0.000041 
0.000043 
0.000046 
0.000049 
0.000052 
0.000055 
0.000058 
0.000062 
0.000066 
0.000070 
0.000074 
0.000078 
0.000083 
0.000088 
0.000093 
0.000098 
0.000104 
0.000109 
0.000116 
0.000122 
0.000129 
0.000136 
0.000143 
0.000151 
0.000159 
0.000167 
0.000176 
0.000185 
0.000195 
0.000205 
0.000215 
0.000226 
0.000237 
0.000249 
0.000261 
0.000273 
0.000287 
0.000300 
0.000314 
0.000329 
0.000344 
0.000360 
0.000376 
0.000393 
0.000410 
0.000428 
0.000447 
0.000466 
0.000486 
0.000506 
0.000527 
0.000549 
0.000572 
0.000595 
0.000618 
0.000643 
0.000668 
0.000693 
0.000720 
0.000747 
0.000775 
0.000803 
0.000832 
0.000862 
0.000893 
0.000924 
0.000956 
0.000989 
0.001022 
0.001056 
0.001091 
0.001126 
0.001162 
0.001199 
0.001237 
0.001275 
0.001314 
0.001353 
0.001393 
0.001434 
0.001475 
0.001517 
0.001559 
0.001603 
0.001646 
0.001690 
0.001735 
0.001780 
0.001826 
0.001872 
0.001919 
0.001966 
0.002013 
0.002061 
0.002110 
0.002158 
0.002207 
0.002257 
0.002306 
0.002356 
0.002406 
0.002457 
0.002507 
0.002558 
0.002609 
0.002660 
0.002712 
0.002763 
0.002814 
0.002866 
0.002917 
0.002968 
0.003020 
0.003071 
0.003122 
0.003174 
0.003225 
0.003275 
0.003326 
0.003377 
0.003427 
0.003477 
0.003527 
0.003576 
0.003625 
0.003674 
0.003722 
0.003770 
0.003818 
0.003865 
0.003912 
0.003958 
0.004004 
0.004049 
0.004094 
0.004138 
0.004182 
0.004225 
0.004268 
0.004309 
0.004351 
0.004391 
0.004431 
0.004470 
0.004509 
0.004546 
0.004583 
0.004620 
0.004655 
0.004690 
0.004724 
0.004757 
0.004789 
0.004821 
0.004851 
0.004881 
0.004910 
0.004938 
0.004965 
0.004992 
0.005017 
0.005042 
0.005065 
0.005088 
0.005109 
0.005130 
0.005150 
0.005169 
0.005187 
0.005204 
0.005220 
0.005235 
0.005249 
0.005262 
0.005274 
0.005285 
0.005295 
0.005304 
0.005312 
0.005319 
0.005325 
0.005331 
0.005335 
0.005338 
0.005340 
0.005341 
0.000000 
0.000000 
0.000000 
0.000000 
0.000000 
0.000000 
0.000000 
0.000000 
0.000000 
0.000000 
0.000000 
0.000000 
0.000000 
0.000000 
0.000000 
0.000000 
0.000000 
0.000000 
0.000000 
0.000000 
0.000000 
0.000000 
0.000000 
0.000000 
0.000000 
0.000000 
0.000000 
0.000000 
0.000000 
0.000000 
0.000000 
0.000000 
0.000000 
0.000000 
0.000000 
0.000000 
0.000000 
0.000000 
0.000000 
0.000000 
0.000000 
0.000000 
0.000000 
0.000000 
0.000000 
0.000000 
0.000000 
0.000000 
0.000000 
0.000000 
0.000000 
0.000000 
0.000001 
0.000001 
0.000001 
0.000001 
0.000001 
0.000001 
0.000001 
0.000001 
0.000001 
0.000001 
0.000001 
0.000001 
0.000001 
0.000002 
0.000002 
0.000002 
0.000002 
0.000002 
0.000002 
0.000002 
0.000003 
0.000003 
0.000003 
0.000003 
0.000004 
0.000004 
0.000004 
0.000005 
0.000005 
0.000005 
0.000006 
0.000006 
0.000007 
0.000007 
0.000008 
0.000008 
0.000009 
0.000010 
0.000010 
0.000011 
0.000012 
0.000013 
0.000014 
0.000015 
0.000016 
0.000017 
0.000018 
0.000019 
0.000021 
0.000022 
0.000024 
0.000025 
0.000027 
0.000029 
0.000031 
0.000033 
0.000035 
0.000038 
0.000040 
0.000043 
0.000045 
0.000048 
0.000051 
0.000055 
0.000058 
0.000062 
0.000066 
0.000070 
0.000074 
0.000079 
0.000084 
0.000089 
0.000094 
0.000099 
0.000105 
0.000112 
0.000118 
0.000125 
0.000132 
0.000140 
0.000147 
0.000156 
0.000164 
0.000173 
0.000183 
0.000193 
0.000203 
0.000214 
0.000225 
0.000237 
0.000249 
0.000262 
0.000275 
0.000289 
0.000304 
0.000319 
0.000335 
0.000351 
0.000368 
0.000385 
0.000404 
0.000423 
0.000442 
0.000463 
0.000484 
0.000506 
0.000528 
0.000552 
0.000576 
0.000601 
0.000626 
0.000653 
0.000680 
0.000709 
0.000738 
0.000768 
0.000799 
0.000830 
0.000863 
0.000897 
0.000931 
0.000966 
0.001003 
0.001040 
0.001078 
0.001117 
0.001157 
0.001198 
0.001240 
0.001283 
0.001326 
0.001371 
0.001417 
0.001463 
0.001510 
0.001559 
0.001608 
0.001658 
0.001709 
0.001761 
0.001814 
0.001867 
0.001921 
0.001977 
0.002032 
0.002089 
0.002147 
0.002205 
0.002264 
0.002323 
0.002384 
0.002445 
0.002506 
0.002569 
0.002631 
0.002695 
0.002759 
0.002823 
0.002888 
0.002953 
0.003019 
0.003085 
0.003151 
0.003218 
0.003285 
0.003353 
0.003420 
0.003488 
0.003556 
0.003624 
0.003692 
0.003761 
0.003829 
0.003897 
0.003966 
0.004034 
0.004102 
0.004170 
0.004238 
0.004306 
0.004374 
0.004441 
0.004508 
0.004575 
0.004641 
0.004707 
0.004773 
0.004838 
0.004903 
0.004967 
0.005031 
0.005094 
0.005157 
0.005219 
0.005280 
0.005341 
0.005401 
0.005460 
0.005519 
0.005577 
0.005634 
0.005690 
0.005745 
0.005800 
0.005854 
0.005906 
0.005958 
0.006009 
0.006059 
0.006108 
0.006156 
0.006203 
0.006249 
0.006294 
0.006338 
0.006381 
0.006422 
0.006463 
0.006502 
0.006541 
0.006578 
0.006614 
0.006648 
0.006682 
0.006714 
0.006746 
0.006776 
0.006804 
0.006832 
0.006858 
0.006883 
0.006907 
0.006929 
0.006950 
0.006970 
0.006989 
0.007006 
0.007022 
0.007037 
0.007050 
0.007062 
0.007073 
0.007082 
0.007090 
0.007097 
0.007102 
0.007106 
0.007109 
0.007110 
0.000000 
0.000000 
0.000000 
0.000000 
0.000000 
0.000000 
0.000000 
0.000000 
0.000000 
0.000000 
0.000000 
0.000000 
0.000000 
0.000000 
0.000000 
0.000000 
0.000000 
0.000000 
0.000000 
0.000000 
0.000000 
0.000000 
0.000000 
0.000000 
0.000000 
0.000000 
0.000000 
0.000000 
0.000000 
0.000000 
0.000000 
0.000000 
0.000000 
0.000000 
0.000000 
0.000000 
0.000000 
0.000000 
0.000000 
0.000000 
0.000000 
0.000000 
0.000000 
0.000000 
0.000000 
0.000000 
0.000000 
0.000000 
0.000000 
0.000000 
0.000001 
0.000001 
0.000001 
0.000001 
0.000001 
0.000001 
0.000001 
0.000001 
0.000001 
0.000001 
0.000001 
0.000001 
0.000002 
0.000002 
0.000002 
0.000002 
0.000002 
0.000002 
0.000002 
0.000003 
0.000003 
0.000003 
0.000003 
0.000004 
0.000004 
0.000004 
0.000005 
0.000005 
0.000005 
0.000006 
0.000006 
0.000007 
0.000007 
0.000008 
0.000008 
0.000009 
0.000010 
0.000011 
0.000011 
0.000012 
0.000013 
0.000014 
0.000015 
0.000016 
0.000017 
0.000019 
0.000020 
0.000021 
0.000023 
0.000025 
0.000026 
0.000028 
0.000030 
0.000032 
0.000034 
0.000037 
0.000039 
0.000042 
0.000045 
0.000048 
0.000051 
0.000054 
0.000058 
0.000061 
0.000065 
0.000069 
0.000074 
0.000078 
0.000083 
0.000089 
0.000094 
0.000100 
0.000106 
0.000112 
0.000119 
0.000126 
0.000133 
0.000141 
0.000149 
0.000158 
0.000167 
0.000177 
0.000187 
0.000197 
0.000208 
0.000219 
0.000231 
0.000244 
0.000257 
0.000271 
0.000285 
0.000300 
0.000315 
0.000331 
0.000348 
0.000366 
0.000384 
0.000403 
0.000423 
0.000444 
0.000465 
0.000487 
0.000510 
0.000534 
0.000559 
0.000585 
0.000611 
0.000639 
0.000667 
0.000697 
0.000727 
0.000758 
0.000791 
0.000824 
0.000859 
0.000894 
0.000931 
0.000969 
0.001008 
0.001048 
0.001089 
0.001131 
0.001174 
0.001219 
0.001264 
0.001311 
0.001359 
0.001408 
0.001458 
0.001510 
0.001562 
0.001616 
0.001671 
0.001727 
0.001784 
0.001843 
0.001902 
0.001963 
0.002024 
0.002087 
0.002151 
0.002216 
0.002282 
0.002349 
0.002417 
0.002486 
0.002556 
0.002627 
0.002699 
0.002772 
0.002846 
0.002921 
0.002996 
0.003072 
0.003149 
0.003227 
0.003306 
0.003385 
0.003465 
0.003545 
0.003626 
0.003708 
0.003790 
0.003872 
0.003955 
0.004038 
0.004122 
0.004206 
0.004291 
0.004375 
0.004460 
0.004545 
0.004630 
0.004715 
0.004800 
0.004885 
0.004970 
0.005055 
0.005140 
0.005225 
0.005310 
0.005394 
0.005478 
0.005562 
0.005645 
0.005728 
0.005811 
0.005893 
0.005974 
0.006056 
0.006136 
0.006216 
0.006295 
0.006373 
0.006451 
0.006528 
0.006604 
0.006680 
0.006754 
0.006828 
0.006901 
0.006972 
0.007043 
0.007113 
0.007182 
0.007249 
0.007316 
0.007381 
0.007446 
0.007509 
0.007571 
0.007632 
0.007691 
0.007749 
0.007806 
0.007862 
0.007916 
0.007969 
0.008021 
0.008071 
0.008120 
0.008167 
0.008213 
0.008258 
0.008301 
0.008343 
0.008383 
0.008421 
0.008458 
0.008494 
0.008528 
0.008560 
0.008591 
0.008621 
0.008648 
0.008675 
0.008699 
0.008722 
0.008743 
0.008763 
0.008781 
0.008798 
0.008813 
0.008826 
0.008837 
0.008847 
0.008856 
0.008862 
0.008867 
0.008870 
0.008872 
0.000000 
0.000000 
0.000000 
0.000000 
0.000000 
0.000000 
0.000000 
0.000000 
0.000000 
0.000000 
0.000000 
0.000000 
0.000000 
0.000000 
0.000000 
0.000000 
0.000000 
0.000000 
0.000000 
0.000000 
0.000000 
0.000000 
0.000000 
0.000000 
0.000000 
0.000000 
0.000000 
0.000000 
0.000000 
0.000000 
0.000000 
0.000000 
0.000000 
0.000000 
0.000000 
0.000000 
0.000000 
0.000000 
0.000000 
0.000000 
0.000000 
0.000000 
0.000000 
0.000000 
0.000000 
0.000000 
0.000000 
0.000001 
0.000001 
0.000001 
0.000001 
0.000001 
0.000001 
0.000001 
0.000001 
0.000001 
0.000001 
0.000001 
0.000001 
0.000001 
0.000002 
0.000002 
0.000002 
0.000002 
0.000002 
0.000002 
0.000003 
0.000003 
0.000003 
0.000003 
0.000004 
0.000004 
0.000004 
0.000004 
0.000005 
0.000005 
0.000006 
0.000006 
0.000007 
0.000007 
0.000008 
0.000008 
0.000009 
0.000010 
0.000010 
0.000011 
0.000012 
0.000013 
0.000014 
0.000015 
0.000016 
0.000017 
0.000018 
0.000020 
0.000021 
0.000023 
0.000024 
0.000026 
0.000028 
0.000030 
0.000032 
0.000034 
0.000037 
0.000039 
0.000042 
0.000045 
0.000048 
0.000051 
0.000054 
0.000058 
0.000062 
0.000066 
0.000070 
0.000075 
0.000080 
0.000085 
0.000090 
0.000096 
0.000102 
0.000108 
0.000115 
0.000122 
0.000129 
0.000137 
0.000145 
0.000154 
0.000163 
0.000172 
0.000182 
0.000193 
0.000204 
0.000215 
0.000227 
0.000240 
0.000253 
0.000267 
0.000282 
0.000297 
0.000313 
0.000329 
0.000347 
0.000365 
0.000384 
0.000403 
0.000424 
0.000445 
0.000467 
0.000491 
0.000515 
0.000540 
0.000566 
0.000593 
0.000620 
0.000649 
0.000680 
0.000711 
0.000743 
0.000776 
0.000811 
0.000846 
0.000883 
0.000921 
0.000961 
0.001001 
0.001043 
0.001086 
0.001131 
0.001176 
0.001223 
0.001272 
0.001321 
0.001372 
0.001425 
0.001478 
0.001534 
0.001590 
0.001648 
0.001707 
0.001768 
0.001830 
0.001894 
0.001958 
0.002025 
0.002092 
0.002161 
0.002232 
0.002303 
0.002376 
0.002451 
0.002526 
0.002603 
0.002681 
0.002761 
0.002842 
0.002924 
0.003007 
0.003091 
0.003176 
0.003263 
0.003350 
0.003439 
0.003529 
0.003619 
0.003711 
0.003803 
0.003897 
0.003991 
0.004086 
0.004182 
0.004278 
0.004375 
0.004473 
0.004571 
0.004670 
0.004770 
0.004869 
0.004970 
0.005070 
0.005171 
0.005272 
0.005374 
0.005475 
0.005577 
0.005679 
0.005781 
0.005882 
0.005984 
0.006086 
0.006187 
0.006288 
0.006389 
0.006490 
0.006590 
0.006690 
0.006790 
0.006889 
0.006987 
0.007085 
0.007182 
0.007279 
0.007375 
0.007470 
0.007564 
0.007658 
0.007750 
0.007842 
0.007933 
0.008022 
0.008111 
0.008199 
0.008285 
0.008371 
0.008455 
0.008538 
0.008620 
0.008700 
0.008779 
0.008857 
0.008933 
0.009008 
0.009082 
0.009154 
0.009225 
0.009294 
0.009362 
0.009428 
0.009492 
0.009555 
0.009616 
0.009676 
0.009734 
0.009790 
0.009845 
0.009898 
0.009949 
0.009998 
0.010046 
0.010092 
0.010136 
0.010178 
0.010218 
0.010257 
0.010293 
0.010328 
0.010361 
0.010392 
0.010421 
0.010448 
0.010474 
0.010497 
0.010519 
0.010538 
0.010556 
0.010571 
0.010585 
0.010597 
0.010607 
0.010614 
0.010620 
0.010624 
0.010626 
0.000000 
0.000000 
0.000000 
0.000000 
0.000000 
0.000000 
0.000000 
0.000000 
0.000000 
0.000000 
0.000000 
0.000000 
0.000000 
0.000000 
0.000000 
0.000000 
0.000000 
0.000000 
0.000000 
0.000000 
0.000000 
0.000000 
0.000000 
0.000000 
0.000000 
0.000000 
0.000000 
0.000000 
0.000000 
0.000000 
0.000000 
0.000000 
0.000000 
0.000000 
0.000000 
0.000000 
0.000000 
0.000000 
0.000000 
0.000000 
0.000000 
0.000000 
0.000000 
0.000000 
0.000000 
0.000001 
0.000001 
0.000001 
0.000001 
0.000001 
0.000001 
0.000001 
0.000001 
0.000001 
0.000001 
0.000001 
0.000001 
0.000001 
0.000002 
0.000002 
0.000002 
0.000002 
0.000002 
0.000002 
0.000003 
0.000003 
0.000003 
0.000003 
0.000004 
0.000004 
0.000004 
0.000005 
0.000005 
0.000005 
0.000006 
0.000006 
0.000007 
0.000007 
0.000008 
0.000008 
0.000009 
0.000010 
0.000011 
0.000011 
0.000012 
0.000013 
0.000014 
0.000015 
0.000016 
0.000018 
0.000019 
0.000020 
0.000022 
0.000023 
0.000025 
0.000027 
0.000029 
0.000031 
0.000033 
0.000036 
0.000038 
0.000041 
0.000044 
0.000047 
0.000050 
0.000053 
0.000057 
0.000061 
0.000065 
0.000069 
0.000074 
0.000078 
0.000083 
0.000089 
0.000095 
0.000101 
0.000107 
0.000114 
0.000121 
0.000128 
0.000136 
0.000144 
0.000153 
0.000162 
0.000172 
0.000182 
0.000193 
0.000204 
0.000216 
0.000229 
0.000242 
0.000256 
0.000270 
0.000285 
0.000301 
0.000317 
0.000334 
0.000352 
0.000371 
0.000391 
0.000411 
0.000433 
0.000455 
0.000479 
0.000503 
0.000528 
0.000554 
0.000582 
0.000610 
0.000640 
0.000670 
0.000702 
0.000735 
0.000770 
0.000805 
0.000842 
0.000880 
0.000919 
0.000960 
0.001002 
0.001046 
0.001091 
0.001137 
0.001185 
0.001234 
0.001285 
0.001337 
0.001391 
0.001446 
0.001503 
0.001562 
0.001622 
0.001684 
0.001747 
0.001812 
0.001878 
0.001946 
0.002016 
0.002087 
0.002160 
0.002235 
0.002311 
0.002389 
0.002468 
0.002549 
0.002632 
0.002716 
0.002801 
0.002888 
0.002977 
0.003067 
0.003159 
0.003252 
0.003346 
0.003442 
0.003540 
0.003638 
0.003738 
0.003839 
0.003942 
0.004045 
0.004150 
0.004256 
0.004363 
0.004471 
0.004580 
0.004690 
0.004800 
0.004912 
0.005024 
0.005138 
0.005252 
0.005366 
0.005481 
0.005597 
0.005713 
0.005830 
0.005947 
0.006064 
0.006182 
0.006300 
0.006418 
0.006536 
0.006655 
0.006773 
0.006891 
0.007009 
0.007127 
0.007245 
0.007362 
0.007479 
0.007596 
0.007712 
0.007828 
0.007944 
0.008058 
0.008172 
0.008286 
0.008398 
0.008510 
0.008621 
0.008731 
0.008840 
0.008948 
0.009056 
0.009162 
0.009266 
0.009370 
0.009473 
0.009574 
0.009674 
0.009772 
0.009870 
0.009966 
0.010060 
0.010153 
0.010244 
0.010334 
0.010422 
0.010509 
0.010594 
0.010677 
0.010758 
0.010838 
0.010916 
0.010992 
0.011067 
0.011139 
0.011210 
0.011278 
0.011345 
0.011410 
0.011473 
0.011534 
0.011593 
0.011650 
0.011704 
0.011757 
0.011808 
0.011856 
0.011903 
0.011947 
0.011989 
0.012029 
0.012067 
0.012103 
0.012136 
0.012168 
0.012197 
0.012224 
0.012248 
0.012271 
0.012291 
0.012309 
0.012325 
0.012338 
0.012350 
0.012359 
0.012366 
0.012370 
0.012372 
0.000000 
0.000000 
0.000000 
0.000000 
0.000000 
0.000000 
0.000000 
0.000000 
0.000000 
0.000000 
0.000000 
0.000000 
0.000000 
0.000000 
0.000000 
0.000000 
0.000000 
0.000000 
0.000000 
0.000000 
0.000000 
0.000000 
0.000000 
0.000000 
0.000000 
0.000000 
0.000000 
0.000000 
0.000000 
0.000000 
0.000000 
0.000000 
0.000000 
0.000000 
0.000000 
0.000000 
0.000000 
0.000000 
0.000000 
0.000000 
0.000000 
0.000000 
0.000000 
0.000000 
0.000001 
0.000001 
0.000001 
0.000001 
0.000001 
0.000001 
0.000001 
0.000001 
0.000001 
0.000001 
0.000001 
0.000001 
0.000002 
0.000002 
0.000002 
0.000002 
0.000002 
0.000002 
0.000003 
0.000003 
0.000003 
0.000003 
0.000004 
0.000004 
0.000004 
0.000005 
0.000005 
0.000005 
0.000006 
0.000006 
0.000007 
0.000007 
0.000008 
0.000008 
0.000009 
0.000010 
0.000011 
0.000011 
0.000012 
0.000013 
0.000014 
0.000015 
0.000017 
0.000018 
0.000019 
0.000021 
0.000022 
0.000024 
0.000026 
0.000027 
0.000029 
0.000032 
0.000034 
0.000036 
0.000039 
0.000042 
0.000045 
0.000048 
0.000051 
0.000054 
0.000058 
0.000062 
0.000066 
0.000071 
0.000076 
0.000081 
0.000086 
0.000092 
0.000097 
0.000104 
0.000110 
0.000117 
0.000125 
0.000133 
0.000141 
0.000150 
0.000159 
0.000169 
0.000179 
0.000190 
0.000201 
0.000213 
0.000225 
0.000239 
0.000252 
0.000267 
0.000282 
0.000298 
0.000315 
0.000332 
0.000351 
0.000370 
0.000390 
0.000411 
0.000433 
0.000456 
0.000479 
0.000504 
0.000530 
0.000557 
0.000586 
0.000615 
0.000645 
0.000677 
0.000710 
0.000744 
0.000780 
0.000817 
0.000855 
0.000895 
0.000936 
0.000979 
0.001023 
0.001069 
0.001116 
0.001165 
0.001215 
0.001267 
0.001321 
0.001376 
0.001433 
0.001492 
0.001552 
0.001615 
0.001678 
0.001744 
0.001812 
0.001881 
0.001952 
0.002025 
0.002100 
0.002177 
0.002255 
0.002336 
0.002418 
0.002502 
0.002588 
0.002676 
0.002765 
0.002856 
0.002950 
0.003045 
0.003141 
0.003240 
0.003340 
0.003442 
0.003545 
0.003650 
0.003757 
0.003866 
0.003976 
0.004087 
0.004200 
0.004315 
0.004431 
0.004548 
0.004667 
0.004787 
0.004908 
0.005030 
0.005154 
0.005278 
0.005404 
0.005530 
0.005658 
0.005786 
0.005916 
0.006046 
0.006176 
0.006308 
0.006440 
0.006572 
0.006705 
0.006839 
0.006972 
0.007106 
0.007241 
0.007375 
0.007509 
0.007644 
0.007779 
0.007913 
0.008047 
0.008181 
0.008315 
0.008448 
0.008581 
0.008714 
0.008846 
0.008977 
0.009108 
0.009238 
0.009368 
0.009496 
0.009624 
0.009750 
0.009876 
0.010001 
0.010124 
0.010247 
0.010368 
0.010488 
0.010607 
0.010724 
0.010840 
0.010955 
0.011068 
0.011179 
0.011289 
0.011397 
0.011504 
0.011609 
0.011712 
0.011813 
0.011913 
0.012011 
0.012106 
0.012200 
0.012292 
0.012382 
0.012470 
0.012556 
0.012640 
0.012722 
0.012801 
0.012879 
0.012954 
0.013027 
0.013098 
0.013166 
0.013233 
0.013297 
0.013359 
0.013418 
0.013475 
0.013530 
0.013582 
0.013632 
0.013679 
0.013724 
0.013767 
0.013807 
0.013845 
0.013880 
0.013913 
0.013943 
0.013971 
0.013996 
0.014019 
0.014039 
0.014057 
0.014072 
0.014085 
0.014095 
0.014103 
0.014108 
0.014110 
0.000000 
0.000000 
0.000000 
0.000000 
0.000000 
0.000000 
0.000000 
0.000000 
0.000000 
0.000000 
0.000000 
0.000000 
0.000000 
0.000000 
0.000000 
0.000000 
0.000000 
0.000000 
0.000000 
0.000000 
0.000000 
0.000000 
0.000000 
0.000000 
0.000000 
0.000000 