# vtk DataFile Version 3.0
results.vtk
ASCII
DATASET RECTILINEAR_GRID
DIMENSIONS 301 301 1
X_COORDINATES 301 double
0.000000 0.003333 0.006667 0.010000 0.013333 0.016667 0.020000 0.023333 0.026667 0.030000 0.033333 0.036667 0.040000 0.043333 0.046667 0.050000 0.053333 0.056667 0.060000 0.063333 0.066667 0.070000 0.073333 0.076667 0.080000 0.083333 0.086667 0.090000 0.093333 0.096667 0.100000 0.103333 0.106667 0.110000 0.113333 0.116667 0.120000 0.123333 0.126667 0.130000 0.133333 0.136667 0.140000 0.143333 0.146667 0.150000 0.153333 0.156667 0.160000 0.163333 0.166667 0.170000 0.173333 0.176667 0.180000 0.183333 0.186667 0.190000 0.193333 0.196667 0.200000 0.203333 0.206667 0.210000 0.213333 0.216667 0.220000 0.223333 0.226667 0.230000 0.233333 0.236667 0.240000 0.243333 0.246667 0.250000 0.253333 0.256667 0.260000 0.263333 0.266667 0.270000 0.273333 0.276667 0.280000 0.283333 0.286667 0.290000 0.293333 0.296667 0.300000 0.303333 0.306667 0.310000 0.313333 0.316667 0.320000 0.323333 0.326667 0.330000 0.333333 0.336667 0.340000 0.343333 0.346667 0.350000 0.353333 0.356667 0.360000 0.363333 0.366667 0.370000 0.373333 0.376667 0.380000 0.383333 0.386667 0.390000 0.393333 0.396667 0.400000 0.403333 0.406667 0.410000 0.413333 0.416667 0.420000 0.423333 0.426667 0.430000 0.433333 0.436667 0.440000 0.443333 0.446667 0.450000 0.453333 0.456667 0.460000 0.463333 0.466667 0.470000 0.473333 0.476667 0.480000 0.483333 0.486667 0.490000 0.493333 0.496667 0.500000 0.503333 0.506667 0.510000 0.513333 0.516667 0.520000 0.523333 0.526667 0.530000 0.533333 0.536667 0.540000 0.543333 0.546667 0.550000 0.553333 0.556667 0.560000 0.563333 0.566667 0.570000 0.573333 0.576667 0.580000 0.583333 0.586667 0.590000 0.593333 0.596667 0.600000 0.603333 0.606667 0.610000 0.613333 0.616667 0.620000 0.623333 0.626667 0.630000 0.633333 0.636667 0.640000 0.643333 0.646667 0.650000 0.653333 0.656667 0.660000 0.663333 0.666667 0.670000 0.673333 0.676667 0.680000 0.683333 0.686667 0.690000 0.693333 0.696667 0.700000 0.703333 0.706667 0.710000 0.713333 0.716667 0.720000 0.723333 0.726667 0.730000 0.733333 0.736667 0.740000 0.743333 0.746667 0.750000 0.753333 0.756667 0.760000 0.763333 0.766667 0.770000 0.773333 0.776667 0.780000 0.783333 0.786667 0.790000 0.793333 0.796667 0.800000 0.803333 0.806667 0.810000 0.813333 0.816667 0.820000 0.823333 0.826667 0.830000 0.833333 0.836667 0.840000 0.843333 0.846667 0.850000 0.853333 0.856667 0.860000 0.863333 0.866667 0.870000 0.873333 0.876667 0.880000 0.883333 0.886667 0.890000 0.893333 0.896667 0.900000 0.903333 0.906667 0.910000 0.913333 0.916667 0.920000 0.923333 0.926667 0.930000 0.933333 0.936667 0.940000 0.943333 0.946667 0.950000 0.953333 0.956667 0.960000 0.963333 0.966667 0.970000 0.973333 0.976667 0.980000 0.983333 0.986667 0.990000 0.993333 0.996667 1.000000 
Y_COORDINATES 301 double
0.000000 0.003333 0.006667 0.010000 0.013333 0.016667 0.020000 0.023333 0.026667 0.030000 0.033333 0.036667 0.040000 0.043333 0.046667 0.050000 0.053333 0.056667 0.060000 0.063333 0.066667 0.070000 0.073333 0.076667 0.080000 0.083333 0.086667 0.090000 0.093333 0.096667 0.100000 0.103333 0.106667 0.110000 0.113333 0.116667 0.120000 0.123333 0.126667 0.130000 0.133333 0.136667 0.140000 0.143333 0.146667 0.150000 0.153333 0.156667 0.160000 0.163333 0.166667 0.170000 0.173333 0.176667 0.180000 0.183333 0.186667 0.190000 0.193333 0.196667 0.200000 0.203333 0.206667 0.210000 0.213333 0.216667 0.220000 0.223333 0.226667 0.230000 0.233333 0.236667 0.240000 0.243333 0.246667 0.250000 0.253333 0.256667 0.260000 0.263333 0.266667 0.270000 0.273333 0.276667 0.280000 0.283333 0.286667 0.290000 0.293333 0.296667 0.300000 0.303333 0.306667 0.310000 0.313333 0.316667 0.320000 0.323333 0.326667 0.330000 0.333333 0.336667 0.340000 0.343333 0.346667 0.350000 0.353333 0.356667 0.360000 0.363333 0.366667 0.370000 0.373333 0.376667 0.380000 0.383333 0.386667 0.390000 0.393333 0.396667 0.400000 0.403333 0.406667 0.410000 0.413333 0.416667 0.420000 0.423333 0.426667 0.430000 0.433333 0.436667 0.440000 0.443333 0.446667 0.450000 0.453333 0.456667 0.460000 0.463333 0.466667 0.470000 0.473333 0.476667 0.480000 0.483333 0.486667 0.490000 0.493333 0.496667 0.500000 0.503333 0.506667 0.510000 0.513333 0.516667 0.520000 0.523333 0.526667 0.530000 0.533333 0.536667 0.540000 0.543333 0.546667 0.550000 0.553333 0.556667 0.560000 0.563333 0.566667 0.570000 0.573333 0.576667 0.580000 0.583333 0.586667 0.590000 0.593333 0.596667 0.600000 0.603333 0.606667 0.610000 0.613333 0.616667 0.620000 0.623333 0.626667 0.630000 0.633333 0.636667 0.640000 0.643333 0.646667 0.650000 0.653333 0.656667 0.660000 0.663333 0.666667 0.670000 0.673333 0.676667 0.680000 0.683333 0.686667 0.690000 0.693333 0.696667 0.700000 0.703333 0.706667 0.710000 0.713333 0.716667 0.720000 0.723333 0.726667 0.730000 0.733333 0.736667 0.740000 0.743333 0.746667 0.750000 0.753333 0.756667 0.760000 0.763333 0.766667 0.770000 0.773333 0.776667 0.780000 0.783333 0.786667 0.790000 0.793333 0.796667 0.800000 0.803333 0.806667 0.810000 0.813333 0.816667 0.820000 0.823333 0.826667 0.830000 0.833333 0.836667 0.840000 0.843333 0.846667 0.850000 0.853333 0.856667 0.860000 0.863333 0.866667 0.870000 0.873333 0.876667 0.880000 0.883333 0.886667 0.890000 0.893333 0.896667 0.900000 0.903333 0.906667 0.910000 0.913333 0.916667 0.920000 0.923333 0.926667 0.930000 0.933333 0.936667 0.940000 0.943333 0.946667 0.950000 0.953333 0.956667 0.960000 0.963333 0.966667 0.970000 0.973333 0.976667 0.980000 0.983333 0.986667 0.990000 0.993333 0.996667 1.000000 
Z_COORDINATES 1 double
0
POINT_DATA 90601 
FIELD FieldData 1 
Concentração 1 90601 double 
0.000000 
0.000000 
0.000000 
0.000000 
0.000000 
0.000000 
0.000000 
0.000000 
0.000000 
0.000000 
0.000000 
0.000000 
0.000000 
0.000000 
0.000000 
0.000000 
0.000000 
0.000000 
0.000000 
0.000000 
0.000000 
0.000000 
0.000000 
0.000000 
0.000000 
0.000000 
0.000000 
0.000000 
0.000000 
0.000000 
0.000000 
0.000000 
0.000000 
0.000000 
0.000000 
0.000000 
0.000000 
0.000000 
0.000000 
0.000000 
0.000000 
0.000000 
0.000000 
0.000000 
0.000000 
0.000000 
0.000000 
0.000000 
0.000000 
0.000000 
0.000000 
0.000000 
0.000000 
0.000000 
0.000000 
0.000000 
0.000000 
0.000000 
0.000000 
0.000000 
0.000000 
0.000000 
0.000000 
0.000000 
0.000000 
0.000000 
0.000000 
0.000000 
0.000000 
0.000000 
0.000000 
0.000000 
0.000000 
0.000000 
0.000000 
0.000000 
0.000000 
0.000000 
0.000000 
0.000000 
0.000000 
0.000000 
0.000000 
0.000000 
0.000000 
0.000000 
0.000000 
0.000000 
0.000000 
0.000000 
0.000000 
0.000000 
0.000000 
0.000000 
0.000000 
0.000001 
0.000001 
0.000001 
0.000001 
0.000001 
0.000001 
0.000001 
0.000001 
0.000001 
0.000001 
0.000001 
0.000001 
0.000001 
0.000001 
0.000001 
0.000002 
0.000002 
0.000002 
0.000002 
0.000002 
0.000002 
0.000002 
0.000002 
0.000003 
0.000003 
0.000003 
0.000003 
0.000003 
0.000004 
0.000004 
0.000004 
0.000004 
0.000005 
0.000005 
0.000005 
0.000006 
0.000006 
0.000006 
0.000007 
0.000007 
0.000008 
0.000008 
0.000008 
0.000009 
0.000009 
0.000010 
0.000011 
0.000011 
0.000012 
0.000012 
0.000013 
0.000014 
0.000015 
0.000015 
0.000016 
0.000017 
0.000018 
0.000019 
0.000020 
0.000021 
0.000022 
0.000023 
0.000024 
0.000026 
0.000027 
0.000028 
0.000030 
0.000031 
0.000033 
0.000034 
0.000036 
0.000038 
0.000039 
0.000041 
0.000043 
0.000045 
0.000047 
0.000049 
0.000051 
0.000053 
0.000056 
0.000058 
0.000061 
0.000063 
0.000066 
0.000068 
0.000071 
0.000074 
0.000077 
0.000080 
0.000083 
0.000086 
0.000090 
0.000093 
0.000096 
0.000100 
0.000104 
0.000107 
0.000111 
0.000115 
0.000119 
0.000123 
0.000127 
0.000132 
0.000136 
0.000140 
0.000145 
0.000150 
0.000154 
0.000159 
0.000164 
0.000169 
0.000174 
0.000179 
0.000184 
0.000190 
0.000195 
0.000201 
0.000206 
0.000212 
0.000218 
0.000223 
0.000229 
0.000235 
0.000241 
0.000247 
0.000253 
0.000259 
0.000266 
0.000272 
0.000278 
0.000285 
0.000291 
0.000297 
0.000304 
0.000310 
0.000317 
0.000323 
0.000330 
0.000337 
0.000343 
0.000350 
0.000357 
0.000363 
0.000370 
0.000377 
0.000383 
0.000390 
0.000396 
0.000403 
0.000410 
0.000416 
0.000423 
0.000429 
0.000436 
0.000442 
0.000448 
0.000455 
0.000461 
0.000467 
0.000473 
0.000479 
0.000485 
0.000491 
0.000497 
0.000503 
0.000509 
0.000514 
0.000520 
0.000525 
0.000530 
0.000536 
0.000541 
0.000546 
0.000550 
0.000555 
0.000560 
0.000564 
0.000569 
0.000573 
0.000577 
0.000581 
0.000585 
0.000589 
0.000592 
0.000596 
0.000599 
0.000602 
0.000605 
0.000608 
0.000610 
0.000613 
0.000615 
0.000617 
0.000619 
0.000621 
0.000623 
0.000624 
0.000626 
0.000627 
0.000628 
0.000629 
0.000630 
0.000630 
0.000630 
0.000631 
0.000000 
0.000000 
0.000000 
0.000000 
0.000000 
0.000000 
0.000000 
0.000000 
0.000000 
0.000000 
0.000000 
0.000000 
0.000000 
0.000000 
0.000000 
0.000000 
0.000000 
0.000000 
0.000000 
0.000000 
0.000000 
0.000000 
0.000000 
0.000000 
0.000000 
0.000000 
0.000000 
0.000000 
0.000000 
0.000000 
0.000000 
0.000000 
0.000000 
0.000000 
0.000000 
0.000000 
0.000000 
0.000000 
0.000000 
0.000000 
0.000000 
0.000000 
0.000000 
0.000000 
0.000000 
0.000000 
0.000000 
0.000000 
0.000000 
0.000000 
0.000000 
0.000000 
0.000000 
0.000000 
0.000000 
0.000000 
0.000000 
0.000000 
0.000000 
0.000000 
0.000000 
0.000000 
0.000000 
0.000000 
0.000000 
0.000000 
0.000000 
0.000000 
0.000000 
0.000000 
0.000000 
0.000000 
0.000000 
0.000000 
0.000000 
0.000000 
0.000000 
0.000000 
0.000000 
0.000000 
0.000000 
0.000000 
0.000000 
0.000000 
0.000000 
0.000001 
0.000001 
0.000001 
0.000001 
0.000001 
0.000001 
0.000001 
0.000001 
0.000001 
0.000001 
0.000001 
0.000001 
0.000001 
0.000001 
0.000001 
0.000002 
0.000002 
0.000002 
0.000002 
0.000002 
0.000002 
0.000002 
0.000003 
0.000003 
0.000003 
0.000003 
0.000003 
0.000004 
0.000004 
0.000004 
0.000004 
0.000005 
0.000005 
0.000005 
0.000006 
0.000006 
0.000006 
0.000007 
0.000007 
0.000008 
0.000008 
0.000009 
0.000009 
0.000010 
0.000011 
0.000011 
0.000012 
0.000013 
0.000013 
0.000014 
0.000015 
0.000016 
0.000017 
0.000018 
0.000019 
0.000020 
0.000021 
0.000022 
0.000024 
0.000025 
0.000026 
0.000028 
0.000029 
0.000031 
0.000033 
0.000035 
0.000036 
0.000038 
0.000040 
0.000042 
0.000045 
0.000047 
0.000049 
0.000052 
0.000054 
0.000057 
0.000060 
0.000063 
0.000066 
0.000069 
0.000072 
0.000075 
0.000079 
0.000083 
0.000086 
0.000090 
0.000094 
0.000098 
0.000103 
0.000107 
0.000112 
0.000117 
0.000122 
0.000127 
0.000132 
0.000137 
0.000143 
0.000149 
0.000154 
0.000161 
0.000167 
0.000173 
0.000180 
0.000187 
0.000193 
0.000201 
0.000208 
0.000215 
0.000223 
0.000231 
0.000239 
0.000247 
0.000256 
0.000264 
0.000273 
0.000282 
0.000291 
0.000300 
0.000310 
0.000319 
0.000329 
0.000339 
0.000349 
0.000360 
0.000370 
0.000381 
0.000392 
0.000403 
0.000414 
0.000425 
0.000437 
0.000448 
0.000460 
0.000472 
0.000484 
0.000496 
0.000508 
0.000520 
0.000533 
0.000545 
0.000558 
0.000571 
0.000584 
0.000597 
0.000610 
0.000623 
0.000636 
0.000649 
0.000662 
0.000675 
0.000689 
0.000702 
0.000715 
0.000729 
0.000742 
0.000755 
0.000769 
0.000782 
0.000795 
0.000808 
0.000822 
0.000835 
0.000848 
0.000861 
0.000874 
0.000886 
0.000899 
0.000912 
0.000924 
0.000937 
0.000949 
0.000961 
0.000973 
0.000985 
0.000997 
0.001008 
0.001020 
0.001031 
0.001042 
0.001053 
0.001063 
0.001074 
0.001084 
0.001094 
0.001103 
0.001113 
0.001122 
0.001131 
0.001140 
0.001148 
0.001157 
0.001165 
0.001172 
0.001180 
0.001187 
0.001194 
0.001200 
0.001206 
0.001212 
0.001218 
0.001223 
0.001228 
0.001233 
0.001237 
0.001241 
0.001245 
0.001248 
0.001251 
0.001254 
0.001257 
0.001259 
0.001260 
0.001262 
0.001263 
0.001263 
0.001264 
0.000000 
0.000000 
0.000000 
0.000000 
0.000000 
0.000000 
0.000000 
0.000000 
0.000000 
0.000000 
0.000000 
0.000000 
0.000000 
0.000000 
0.000000 
0.000000 
0.000000 
0.000000 
0.000000 
0.000000 
0.000000 
0.000000 
0.000000 
0.000000 
0.000000 
0.000000 
0.000000 
0.000000 
0.000000 
0.000000 
0.000000 
0.000000 
0.000000 
0.000000 
0.000000 
0.000000 
0.000000 
0.000000 
0.000000 
0.000000 
0.000000 
0.000000 
0.000000 
0.000000 
0.000000 
0.000000 
0.000000 
0.000000 
0.000000 
0.000000 
0.000000 
0.000000 
0.000000 
0.000000 
0.000000 
0.000000 
0.000000 
0.000000 
0.000000 
0.000000 
0.000000 
0.000000 
0.000000 
0.000000 
0.000000 
0.000000 
0.000000 
0.000000 
0.000000 
0.000000 
0.000000 
0.000000 
0.000000 
0.000000 
0.000000 
0.000000 
0.000000 
0.000000 
0.000000 
0.000000 
0.000001 
0.000001 
0.000001 
0.000001 
0.000001 
0.000001 
0.000001 
0.000001 
0.000001 
0.000001 
0.000001 
0.000001 
0.000001 
0.000001 
0.000002 
0.000002 
0.000002 
0.000002 
0.000002 
0.000002 
0.000002 
0.000003 
0.000003 
0.000003 
0.000003 
0.000003 
0.000004 
0.000004 
0.000004 
0.000004 
0.000005 
0.000005 
0.000005 
0.000006 
0.000006 
0.000007 
0.000007 
0.000008 
0.000008 
0.000009 
0.000009 
0.000010 
0.000010 
0.000011 
0.000012 
0.000013 
0.000013 
0.000014 
0.000015 
0.000016 
0.000017 
0.000018 
0.000019 
0.000020 
0.000022 
0.000023 
0.000024 
0.000026 
0.000027 
0.000029 
0.000030 
0.000032 
0.000034 
0.000036 
0.000038 
0.000040 
0.000042 
0.000045 
0.000047 
0.000050 
0.000052 
0.000055 
0.000058 
0.000061 
0.000064 
0.000067 
0.000071 
0.000074 
0.000078 
0.000082 
0.000086 
0.000090 
0.000095 
0.000099 
0.000104 
0.000109 
0.000114 
0.000119 
0.000125 
0.000130 
0.000136 
0.000142 
0.000149 
0.000155 
0.000162 
0.000169 
0.000176 
0.000184 
0.000191 
0.000199 
0.000207 
0.000216 
0.000224 
0.000233 
0.000243 
0.000252 
0.000262 
0.000272 
0.000282 
0.000292 
0.000303 
0.000314 
0.000325 
0.000337 
0.000349 
0.000361 
0.000373 
0.000386 
0.000399 
0.000412 
0.000425 
0.000439 
0.000453 
0.000468 
0.000482 
0.000497 
0.000512 
0.000527 
0.000543 
0.000559 
0.000575 
0.000591 
0.000608 
0.000624 
0.000641 
0.000659 
0.000676 
0.000694 
0.000712 
0.000730 
0.000748 
0.000766 
0.000785 
0.000804 
0.000823 
0.000842 
0.000861 
0.000880 
0.000900 
0.000919 
0.000939 
0.000959 
0.000978 
0.000998 
0.001018 
0.001038 
0.001058 
0.001078 
0.001098 
0.001118 
0.001138 
0.001158 
0.001178 
0.001198 
0.001218 
0.001238 
0.001258 
0.001277 
0.001297 
0.001316 
0.001336 
0.001355 
0.001374 
0.001392 
0.001411 
0.001430 
0.001448 
0.001466 
0.001484 
0.001501 
0.001519 
0.001536 
0.001552 
0.001569 
0.001585 
0.001601 
0.001617 
0.001632 
0.001647 
0.001661 
0.001676 
0.001690 
0.001703 
0.001716 
0.001729 
0.001741 
0.001753 
0.001765 
0.001776 
0.001787 
0.001797 
0.001807 
0.001816 
0.001825 
0.001833 
0.001841 
0.001849 
0.001856 
0.001862 
0.001868 
0.001874 
0.001879 
0.001884 
0.001888 
0.001891 
0.001894 
0.001897 
0.001899 
0.001900 
0.001901 
0.001902 
0.000000 
0.000000 
0.000000 
0.000000 
0.000000 
0.000000 
0.000000 
0.000000 
0.000000 
0.000000 
0.000000 
0.000000 
0.000000 
0.000000 
0.000000 
0.000000 
0.000000 
0.000000 
0.000000 
0.000000 
0.000000 
0.000000 
0.000000 
0.000000 
0.000000 
0.000000 
0.000000 
0.000000 
0.000000 
0.000000 
0.000000 
0.000000 
0.000000 
0.000000 
0.000000 
0.000000 
0.000000 
0.000000 
0.000000 
0.000000 
0.000000 
0.000000 
0.000000 
0.000000 
0.000000 
0.000000 
0.000000 
0.000000 
0.000000 
0.000000 
0.000000 
0.000000 
0.000000 
0.000000 
0.000000 
0.000000 
0.000000 
0.000000 
0.000000 
0.000000 
0.000000 
0.000000 
0.000000 
0.000000 
0.000000 
0.000000 
0.000000 
0.000000 
0.000000 
0.000000 
0.000000 
0.000000 
0.000000 
0.000000 
0.000000 
0.000000 
0.000001 
0.000001 
0.000001 
0.000001 
0.000001 
0.000001 
0.000001 
0.000001 
0.000001 
0.000001 
0.000001 
0.000001 
0.000001 
0.000001 
0.000002 
0.000002 
0.000002 
0.000002 
0.000002 
0.000002 
0.000002 
0.000003 
0.000003 
0.000003 
0.000003 
0.000003 
0.000004 
0.000004 
0.000004 
0.000004 
0.000005 
0.000005 
0.000006 
0.000006 
0.000006 
0.000007 
0.000007 
0.000008 
0.000008 
0.000009 
0.000009 
0.000010 
0.000011 
0.000012 
0.000012 
0.000013 
0.000014 
0.000015 
0.000016 
0.000017 
0.000018 
0.000019 
0.000020 
0.000022 
0.000023 
0.000024 
0.000026 
0.000027 
0.000029 
0.000031 
0.000033 
0.000035 
0.000037 
0.000039 
0.000041 
0.000043 
0.000046 
0.000048 
0.000051 
0.000054 
0.000057 
0.000060 
0.000063 
0.000067 
0.000070 
0.000074 
0.000078 
0.000082 
0.000086 
0.000091 
0.000095 
0.000100 
0.000105 
0.000111 
0.000116 
0.000122 
0.000128 
0.000134 
0.000140 
0.000147 
0.000154 
0.000161 
0.000168 
0.000176 
0.000184 
0.000192 
0.000200 
0.000209 
0.000218 
0.000228 
0.000237 
0.000247 
0.000258 
0.000268 
0.000279 
0.000291 
0.000302 
0.000314 
0.000327 
0.000339 
0.000352 
0.000366 
0.000379 
0.000393 
0.000408 
0.000423 
0.000438 
0.000453 
0.000469 
0.000486 
0.000502 
0.000519 
0.000537 
0.000554 
0.000572 
0.000591 
0.000610 
0.000629 
0.000648 
0.000668 
0.000689 
0.000709 
0.000730 
0.000751 
0.000773 
0.000795 
0.000817 
0.000840 
0.000862 
0.000885 
0.000909 
0.000933 
0.000956 
0.000981 
0.001005 
0.001030 
0.001055 
0.001080 
0.001105 
0.001131 
0.001156 
0.001182 
0.001208 
0.001234 
0.001261 
0.001287 
0.001314 
0.001340 
0.001367 
0.001394 
0.001421 
0.001447 
0.001474 
0.001501 
0.001528 
0.001555 
0.001581 
0.001608 
0.001635 
0.001661 
0.001687 
0.001714 
0.001740 
0.001766 
0.001792 
0.001817 
0.001843 
0.001868 
0.001893 
0.001917 
0.001942 
0.001966 
0.001989 
0.002013 
0.002036 
0.002059 
0.002081 
0.002103 
0.002125 
0.002146 
0.002167 
0.002188 
0.002208 
0.002227 
0.002246 
0.002265 
0.002283 
0.002300 
0.002317 
0.002334 
0.002350 
0.002365 
0.002380 
0.002394 
0.002408 
0.002421 
0.002433 
0.002445 
0.002456 
0.002467 
0.002477 
0.002486 
0.002495 
0.002503 
0.002511 
0.002517 
0.002524 
0.002529 
0.002534 
0.002538 
0.002541 
0.002544 
0.002546 
0.002547 
0.002548 
0.000000 
0.000000 
0.000000 
0.000000 
0.000000 
0.000000 
0.000000 
0.000000 
0.000000 
0.000000 
0.000000 
0.000000 
0.000000 
0.000000 
0.000000 
0.000000 
0.000000 
0.000000 
0.000000 
0.000000 
0.000000 
0.000000 
0.000000 
0.000000 
0.000000 
0.000000 
0.000000 
0.000000 
0.000000 
0.000000 
0.000000 
0.000000 
0.000000 
0.000000 
0.000000 
0.000000 
0.000000 
0.000000 
0.000000 
0.000000 
0.000000 
0.000000 
0.000000 
0.000000 
0.000000 
0.000000 
0.000000 
0.000000 
0.000000 
0.000000 
0.000000 
0.000000 
0.000000 
0.000000 
0.000000 
0.000000 
0.000000 
0.000000 
0.000000 
0.000000 
0.000000 
0.000000 
0.000000 
0.000000 
0.000000 
0.000000 
0.000000 
0.000000 
0.000000 
0.000000 
0.000000 
0.000000 
0.000000 
0.000000 
0.000001 
0.000001 
0.000001 
0.000001 
0.000001 
0.000001 
0.000001 
0.000001 
0.000001 
0.000001 
0.000001 
0.000001 
0.000001 
0.000002 
0.000002 
0.000002 
0.000002 
0.000002 
0.000002 
0.000002 
0.000003 
0.000003 
0.000003 
0.000003 
0.000003 
0.000004 
0.000004 
0.000004 
0.000005 
0.000005 
0.000005 
0.000006 
0.000006 
0.000007 
0.000007 
0.000008 
0.000008 
0.000009 
0.000009 
0.000010 
0.000011 
0.000011 
0.000012 
0.000013 
0.000014 
0.000015 
0.000016 
0.000017 
0.000018 
0.000019 
0.000020 
0.000021 
0.000023 
0.000024 
0.000026 
0.000027 
0.000029 
0.000031 
0.000033 
0.000035 
0.000037 
0.000039 
0.000041 
0.000044 
0.000046 
0.000049 
0.000052 
0.000055 
0.000058 
0.000061 
0.000065 
0.000068 
0.000072 
0.000076 
0.000080 
0.000085 
0.000089 
0.000094 
0.000099 
0.000104 
0.000110 
0.000115 
0.000121 
0.000127 
0.000134 
0.000140 
0.000147 
0.000154 
0.000162 
0.000170 
0.000178 
0.000186 
0.000195 
0.000204 
0.000213 
0.000223 
0.000233 
0.000243 
0.000254 
0.000265 
0.000277 
0.000288 
0.000301 
0.000313 
0.000326 
0.000340 
0.000354 
0.000368 
0.000383 
0.000398 
0.000413 
0.000429 
0.000446 
0.000463 
0.000480 
0.000498 
0.000516 
0.000535 
0.000554 
0.000574 
0.000594 
0.000614 
0.000635 
0.000657 
0.000679 
0.000701 
0.000724 
0.000747 
0.000771 
0.000795 
0.000820 
0.000845 
0.000870 
0.000896 
0.000923 
0.000949 
0.000977 
0.001004 
0.001032 
0.001060 
0.001089 
0.001118 
0.001148 
0.001178 
0.001208 
0.001238 
0.001269 
0.001300 
0.001331 
0.001363 
0.001395 
0.001427 
0.001459 
0.001492 
0.001525 
0.001557 
0.001591 
0.001624 
0.001657 
0.001690 
0.001724 
0.001758 
0.001791 
0.001825 
0.001859 
0.001892 
0.001926 
0.001960 
0.001993 
0.002027 
0.002060 
0.002093 
0.002126 
0.002159 
0.002192 
0.002225 
0.002257 
0.002289 
0.002321 
0.002352 
0.002384 
0.002415 
0.002445 
0.002475 
0.002505 
0.002535 
0.002564 
0.002592 
0.002620 
0.002648 
0.002675 
0.002702 
0.002728 
0.002753 
0.002778 
0.002803 
0.002827 
0.002850 
0.002872 
0.002894 
0.002916 
0.002936 
0.002956 
0.002975 
0.002994 
0.003012 
0.003029 
0.003045 
0.003061 
0.003076 
0.003090 
0.003103 
0.003116 
0.003127 
0.003138 
0.003148 
0.003158 
0.003166 
0.003174 
0.003181 
0.003187 
0.003192 
0.003196 
0.003199 
0.003202 
0.003204 
0.003205 
0.000000 
0.000000 
0.000000 
0.000000 
0.000000 
0.000000 
0.000000 
0.000000 
0.000000 
0.000000 
0.000000 
0.000000 
0.000000 
0.000000 
0.000000 
0.000000 
0.000000 
0.000000 
0.000000 
0.000000 
0.000000 
0.000000 
0.000000 
0.000000 
0.000000 
0.000000 
0.000000 
0.000000 
0.000000 
0.000000 
0.000000 
0.000000 
0.000000 
0.000000 
0.000000 
0.000000 
0.000000 
0.000000 
0.000000 
0.000000 
0.000000 
0.000000 
0.000000 
0.000000 
0.000000 
0.000000 
0.000000 
0.000000 
0.000000 
0.000000 
0.000000 
0.000000 
0.000000 
0.000000 
0.000000 
0.000000 
0.000000 
0.000000 
0.000000 
0.000000 
0.000000 
0.000000 
0.000000 
0.000000 
0.000000 
0.000000 
0.000000 
0.000000 
0.000000 
0.000000 
0.000000 
0.000001 
0.000001 
0.000001 
0.000001 
0.000001 
0.000001 
0.000001 
0.000001 
0.000001 
0.000001 
0.000001 
0.000001 
0.000001 
0.000001 
0.000002 
0.000002 
0.000002 
0.000002 
0.000002 
0.000002 
0.000003 
0.000003 
0.000003 
0.000003 
0.000003 
0.000004 
0.000004 
0.000004 
0.000005 
0.000005 
0.000005 
0.000006 
0.000006 
0.000007 
0.000007 
0.000007 
0.000008 
0.000009 
0.000009 
0.000010 
0.000011 
0.000011 
0.000012 
0.000013 
0.000014 
0.000015 
0.000016 
0.000017 
0.000018 
0.000019 
0.000020 
0.000022 
0.000023 
0.000025 
0.000026 
0.000028 
0.000030 
0.000032 
0.000033 
0.000036 
0.000038 
0.000040 
0.000043 
0.000045 
0.000048 
0.000051 
0.000054 
0.000057 
0.000060 
0.000064 
0.000067 
0.000071 
0.000075 
0.000079 
0.000084 
0.000088 
0.000093 
0.000098 
0.000103 
0.000109 
0.000115 
0.000121 
0.000127 
0.000134 
0.000141 
0.000148 
0.000155 
0.000163 
0.000171 
0.000180 
0.000188 
0.000198 
0.000207 
0.000217 
0.000227 
0.000238 
0.000249 
0.000260 
0.000272 
0.000284 
0.000297 
0.000310 
0.000323 
0.000337 
0.000352 
0.000367 
0.000382 
0.000398 
0.000414 
0.000431 
0.000449 
0.000466 
0.000485 
0.000504 
0.000523 
0.000543 
0.000564 
0.000585 
0.000606 
0.000629 
0.000651 
0.000675 
0.000698 
0.000723 
0.000748 
0.000773 
0.000799 
0.000826 
0.000853 
0.000881 
0.000909 
0.000938 
0.000967 
0.000997 
0.001028 
0.001058 
0.001090 
0.001122 
0.001154 
0.001187 
0.001221 
0.001255 
0.001289 
0.001324 
0.001359 
0.001395 
0.001431 
0.001467 
0.001504 
0.001541 
0.001579 
0.001617 
0.001655 
0.001694 
0.001732 
0.001771 
0.001811 
0.001850 
0.001890 
0.001930 
0.001970 
0.002010 
0.002051 
0.002091 
0.002132 
0.002172 
0.002213 
0.002254 
0.002294 
0.002335 
0.002376 
0.002416 
0.002456 
0.002497 
0.002537 
0.002577 
0.002616 
0.002656 
0.002695 
0.002734 
0.002773 
0.002811 
0.002849 
0.002887 
0.002924 
0.002961 
0.002997 
0.003033 
0.003069 
0.003103 
0.003138 
0.003172 
0.003205 
0.003238 
0.003270 
0.003301 
0.003332 
0.003362 
0.003391 
0.003420 
0.003448 
0.003475 
0.003501 
0.003527 
0.003552 
0.003576 
0.003599 
0.003621 
0.003643 
0.003663 
0.003683 
0.003702 
0.003720 
0.003736 
0.003752 
0.003767 
0.003782 
0.003795 
0.003807 
0.003818 
0.003828 
0.003837 
0.003845 
0.003853 
0.003859 
0.003864 
0.003868 
0.003871 
0.003873 
0.003874 
0.000000 
0.000000 
0.000000 
0.000000 
0.000000 
0.000000 
0.000000 
0.000000 
0.000000 
0.000000 
0.000000 
0.000000 
0.000000 
0.000000 
0.000000 
0.000000 
0.000000 
0.000000 
0.000000 
0.000000 
0.000000 
0.000000 
0.000000 
0.000000 
0.000000 
0.000000 
0.000000 
0.000000 
0.000000 
0.000000 
0.000000 
0.000000 
0.000000 
0.000000 
0.000000 
0.000000 
0.000000 
0.000000 
0.000000 
0.000000 
0.000000 
0.000000 
0.000000 
0.000000 
0.000000 
0.000000 
0.000000 
0.000000 
0.000000 
0.000000 
0.000000 
0.000000 
0.000000 
0.000000 
0.000000 
0.000000 
0.000000 
0.000000 
0.000000 
0.000000 
0.000000 
0.000000 
0.000000 
0.000000 
0.000000 
0.000000 
0.000000 
0.000000 
0.000000 
0.000001 
0.000001 
0.000001 
0.000001 
0.000001 
0.000001 
0.000001 
0.000001 
0.000001 
0.000001 
0.000001 
0.000001 
0.000001 
0.000002 
0.000002 
0.000002 
0.000002 
0.000002 
0.000002 
0.000002 
0.000003 
0.000003 
0.000003 
0.000003 
0.000003 
0.000004 
0.000004 
0.000004 
0.000005 
0.000005 
0.000005 
0.000006 
0.000006 
0.000007 
0.000007 
0.000008 
0.000008 
0.000009 
0.000010 
0.000010 
0.000011 
0.000012 
0.000013 
0.000013 
0.000014 
0.000015 
0.000016 
0.000018 
0.000019 
0.000020 
0.000021 
0.000023 
0.000024 
0.000026 
0.000028 
0.000029 
0.000031 
0.000033 
0.000035 
0.000038 
0.000040 
0.000042 
0.000045 
0.000048 
0.000051 
0.000054 
0.000057 
0.000060 
0.000064 
0.000068 
0.000072 
0.000076 
0.000080 
0.000085 
0.000089 
0.000094 
0.000100 
0.000105 
0.000111 
0.000117 
0.000123 
0.000130 
0.000137 
0.000144 
0.000151 
0.000159 
0.000167 
0.000176 
0.000185 
0.000194 
0.000204 
0.000214 
0.000224 
0.000235 
0.000246 
0.000258 
0.000270 
0.000283 
0.000296 
0.000309 
0.000323 
0.000338 
0.000353 
0.000368 
0.000384 
0.000401 
0.000418 
0.000436 
0.000454 
0.000473 
0.000492 
0.000512 
0.000533 
0.000554 
0.000576 
0.000598 
0.000621 
0.000645 
0.000669 
0.000694 
0.000720 
0.000746 
0.000773 
0.000801 
0.000829 
0.000858 
0.000887 
0.000917 
0.000948 
0.000980 
0.001012 
0.001045 
0.001078 
0.001112 
0.001147 
0.001182 
0.001218 
0.001254 
0.001291 
0.001329 
0.001367 
0.001406 
0.001446 
0.001486 
0.001526 
0.001567 
0.001609 
0.001651 
0.001693 
0.001736 
0.001780 
0.001824 
0.001868 
0.001913 
0.001958 
0.002003 
0.002049 
0.002095 
0.002141 
0.002187 
0.002234 
0.002281 
0.002328 
0.002376 
0.002423 
0.002471 
0.002518 
0.002566 
0.002614 
0.002662 
0.002709 
0.002757 
0.002805 
0.002852 
0.002900 
0.002947 
0.002994 
0.003041 
0.003087 
0.003134 
0.003180 
0.003225 
0.003271 
0.003316 
0.003360 
0.003404 
0.003448 
0.003491 
0.003534 
0.003576 
0.003617 
0.003658 
0.003698 
0.003738 
0.003777 
0.003815 
0.003853 
0.003889 
0.003925 
0.003960 
0.003995 
0.004028 
0.004061 
0.004093 
0.004124 
0.004154 
0.004183 
0.004211 
0.004238 
0.004264 
0.004289 
0.004313 
0.004336 
0.004358 
0.004379 
0.004399 
0.004417 
0.004435 
0.004451 
0.004467 
0.004481 
0.004494 
0.004506 
0.004516 
0.004526 
0.004534 
0.004541 
0.004547 
0.004552 
0.004556 
0.004558 
0.004559 
0.000000 
0.000000 
0.000000 
0.000000 
0.000000 
0.000000 
0.000000 
0.000000 
0.000000 
0.000000 
0.000000 
0.000000 
0.000000 
0.000000 
0.000000 
0.000000 
0.000000 
0.000000 
0.000000 
0.000000 
0.000000 
0.000000 
0.000000 
0.000000 
0.000000 
0.000000 
0.000000 
0.000000 
0.000000 
0.000000 
0.000000 
0.000000 
0.000000 
0.000000 
0.000000 
0.000000 
0.000000 
0.000000 
0.000000 
0.000000 
0.000000 
0.000000 
0.000000 
0.000000 
0.000000 
0.000000 
0.000000 
0.000000 
0.000000 
0.000000 
0.000000 
0.000000 
0.000000 
0.000000 
0.000000 
0.000000 
0.000000 
0.000000 
0.000000 
0.000000 
0.000000 
0.000000 
0.000000 
0.000000 
0.000000 
0.000000 
0.000000 
0.000001 
0.000001 
0.000001 
0.000001 
0.000001 
0.000001 
0.000001 
0.000001 
0.000001 
0.000001 
0.000001 
0.000001 
0.000001 
0.000002 
0.000002 
0.000002 
0.000002 
0.000002 
0.000002 
0.000002 
0.000003 
0.000003 
0.000003 
0.000003 
0.000004 
0.000004 
0.000004 
0.000004 
0.000005 
0.000005 
0.000006 
0.000006 
0.000006 
0.000007 
0.000007 
0.000008 
0.000008 
0.000009 
0.000010 
0.000010 
0.000011 
0.000012 
0.000013 
0.000014 
0.000015 
0.000016 
0.000017 
0.000018 
0.000019 
0.000021 
0.000022 
0.000023 
0.000025 
0.000027 
0.000028 
0.000030 
0.000032 
0.000034 
0.000037 
0.000039 
0.000041 
0.000044 
0.000047 
0.000050 
0.000053 
0.000056 
0.000059 
0.000063 
0.000067 
0.000071 
0.000075 
0.000079 
0.000084 
0.000089 
0.000094 
0.000099 
0.000105 
0.000111 
0.000117 
0.000123 
0.000130 
0.000137 
0.000144 
0.000152 
0.000160 
0.000168 
0.000177 
0.000186 
0.000196 
0.000206 
0.000216 
0.000227 
0.000238 
0.000250 
0.000262 
0.000275 
0.000288 
0.000302 
0.000316 
0.000330 
0.000346 
0.000361 
0.000378 
0.000395 
0.000412 
0.000430 
0.000449 
0.000468 
0.000488 
0.000509 
0.000530 
0.000552 
0.000575 
0.000598 
0.000622 
0.000647 
0.000672 
0.000698 
0.000725 
0.000752 
0.000781 
0.000810 
0.000839 
0.000870 
0.000901 
0.000933 
0.000966 
0.000999 
0.001034 
0.001069 
0.001104 
0.001141 
0.001178 
0.001216 
0.001255 
0.001294 
0.001335 
0.001375 
0.001417 
0.001459 
0.001502 
0.001546 
0.001590 
0.001635 
0.001681 
0.001727 
0.001774 
0.001822 
0.001870 
0.001918 
0.001967 
0.002017 
0.002067 
0.002118 
0.002169 
0.002221 
0.002273 
0.002325 
0.002378 
0.002431 
0.002484 
0.002538 
0.002592 
0.002646 
0.002700 
0.002755 
0.002810 
0.002865 
0.002920 
0.002975 
0.003030 
0.003085 
0.003140 
0.003194 
0.003249 
0.003304 
0.003358 
0.003413 
0.003467 
0.003521 
0.003574 
0.003628 
0.003680 
0.003733 
0.003785 
0.003837 
0.003888 
0.003939 
0.003989 
0.004038 
0.004087 
0.004135 
0.004183 
0.004230 
0.004276 
0.004322 
0.004366 
0.004410 
0.004453 
0.004495 
0.004536 
0.004577 
0.004616 
0.004655 
0.004692 
0.004729 
0.004764 
0.004798 
0.004831 
0.004864 
0.004895 
0.004925 
0.004953 
0.004981 
0.005007 
0.005032 
0.005056 
0.005079 
0.005100 
0.005120 
0.005139 
0.005157 
0.005173 
0.005188 
0.005201 
0.005214 
0.005225 
0.005234 
0.005242 
0.005249 
0.005255 
0.005259 
0.005262 
0.005263 
0.000000 
0.000000 
0.000000 
0.000000 
0.000000 
0.000000 
0.000000 
0.000000 
0.000000 
0.000000 
0.000000 
0.000000 
0.000000 
0.000000 
0.000000 
0.000000 
0.000000 
0.000000 
0.000000 
0.000000 
0.000000 
0.000000 
0.000000 
0.000000 
0.000000 
0.000000 