# vtk DataFile Version 3.0
results.vtk
ASCII
DATASET RECTILINEAR_GRID
DIMENSIONS 301 301 1
X_COORDINATES 301 double
0.000000 0.003333 0.006667 0.010000 0.013333 0.016667 0.020000 0.023333 0.026667 0.030000 0.033333 0.036667 0.040000 0.043333 0.046667 0.050000 0.053333 0.056667 0.060000 0.063333 0.066667 0.070000 0.073333 0.076667 0.080000 0.083333 0.086667 0.090000 0.093333 0.096667 0.100000 0.103333 0.106667 0.110000 0.113333 0.116667 0.120000 0.123333 0.126667 0.130000 0.133333 0.136667 0.140000 0.143333 0.146667 0.150000 0.153333 0.156667 0.160000 0.163333 0.166667 0.170000 0.173333 0.176667 0.180000 0.183333 0.186667 0.190000 0.193333 0.196667 0.200000 0.203333 0.206667 0.210000 0.213333 0.216667 0.220000 0.223333 0.226667 0.230000 0.233333 0.236667 0.240000 0.243333 0.246667 0.250000 0.253333 0.256667 0.260000 0.263333 0.266667 0.270000 0.273333 0.276667 0.280000 0.283333 0.286667 0.290000 0.293333 0.296667 0.300000 0.303333 0.306667 0.310000 0.313333 0.316667 0.320000 0.323333 0.326667 0.330000 0.333333 0.336667 0.340000 0.343333 0.346667 0.350000 0.353333 0.356667 0.360000 0.363333 0.366667 0.370000 0.373333 0.376667 0.380000 0.383333 0.386667 0.390000 0.393333 0.396667 0.400000 0.403333 0.406667 0.410000 0.413333 0.416667 0.420000 0.423333 0.426667 0.430000 0.433333 0.436667 0.440000 0.443333 0.446667 0.450000 0.453333 0.456667 0.460000 0.463333 0.466667 0.470000 0.473333 0.476667 0.480000 0.483333 0.486667 0.490000 0.493333 0.496667 0.500000 0.503333 0.506667 0.510000 0.513333 0.516667 0.520000 0.523333 0.526667 0.530000 0.533333 0.536667 0.540000 0.543333 0.546667 0.550000 0.553333 0.556667 0.560000 0.563333 0.566667 0.570000 0.573333 0.576667 0.580000 0.583333 0.586667 0.590000 0.593333 0.596667 0.600000 0.603333 0.606667 0.610000 0.613333 0.616667 0.620000 0.623333 0.626667 0.630000 0.633333 0.636667 0.640000 0.643333 0.646667 0.650000 0.653333 0.656667 0.660000 0.663333 0.666667 0.670000 0.673333 0.676667 0.680000 0.683333 0.686667 0.690000 0.693333 0.696667 0.700000 0.703333 0.706667 0.710000 0.713333 0.716667 0.720000 0.723333 0.726667 0.730000 0.733333 0.736667 0.740000 0.743333 0.746667 0.750000 0.753333 0.756667 0.760000 0.763333 0.766667 0.770000 0.773333 0.776667 0.780000 0.783333 0.786667 0.790000 0.793333 0.796667 0.800000 0.803333 0.806667 0.810000 0.813333 0.816667 0.820000 0.823333 0.826667 0.830000 0.833333 0.836667 0.840000 0.843333 0.846667 0.850000 0.853333 0.856667 0.860000 0.863333 0.866667 0.870000 0.873333 0.876667 0.880000 0.883333 0.886667 0.890000 0.893333 0.896667 0.900000 0.903333 0.906667 0.910000 0.913333 0.916667 0.920000 0.923333 0.926667 0.930000 0.933333 0.936667 0.940000 0.943333 0.946667 0.950000 0.953333 0.956667 0.960000 0.963333 0.966667 0.970000 0.973333 0.976667 0.980000 0.983333 0.986667 0.990000 0.993333 0.996667 1.000000 
Y_COORDINATES 301 double
0.000000 0.003333 0.006667 0.010000 0.013333 0.016667 0.020000 0.023333 0.026667 0.030000 0.033333 0.036667 0.040000 0.043333 0.046667 0.050000 0.053333 0.056667 0.060000 0.063333 0.066667 0.070000 0.073333 0.076667 0.080000 0.083333 0.086667 0.090000 0.093333 0.096667 0.100000 0.103333 0.106667 0.110000 0.113333 0.116667 0.120000 0.123333 0.126667 0.130000 0.133333 0.136667 0.140000 0.143333 0.146667 0.150000 0.153333 0.156667 0.160000 0.163333 0.166667 0.170000 0.173333 0.176667 0.180000 0.183333 0.186667 0.190000 0.193333 0.196667 0.200000 0.203333 0.206667 0.210000 0.213333 0.216667 0.220000 0.223333 0.226667 0.230000 0.233333 0.236667 0.240000 0.243333 0.246667 0.250000 0.253333 0.256667 0.260000 0.263333 0.266667 0.270000 0.273333 0.276667 0.280000 0.283333 0.286667 0.290000 0.293333 0.296667 0.300000 0.303333 0.306667 0.310000 0.313333 0.316667 0.320000 0.323333 0.326667 0.330000 0.333333 0.336667 0.340000 0.343333 0.346667 0.350000 0.353333 0.356667 0.360000 0.363333 0.366667 0.370000 0.373333 0.376667 0.380000 0.383333 0.386667 0.390000 0.393333 0.396667 0.400000 0.403333 0.406667 0.410000 0.413333 0.416667 0.420000 0.423333 0.426667 0.430000 0.433333 0.436667 0.440000 0.443333 0.446667 0.450000 0.453333 0.456667 0.460000 0.463333 0.466667 0.470000 0.473333 0.476667 0.480000 0.483333 0.486667 0.490000 0.493333 0.496667 0.500000 0.503333 0.506667 0.510000 0.513333 0.516667 0.520000 0.523333 0.526667 0.530000 0.533333 0.536667 0.540000 0.543333 0.546667 0.550000 0.553333 0.556667 0.560000 0.563333 0.566667 0.570000 0.573333 0.576667 0.580000 0.583333 0.586667 0.590000 0.593333 0.596667 0.600000 0.603333 0.606667 0.610000 0.613333 0.616667 0.620000 0.623333 0.626667 0.630000 0.633333 0.636667 0.640000 0.643333 0.646667 0.650000 0.653333 0.656667 0.660000 0.663333 0.666667 0.670000 0.673333 0.676667 0.680000 0.683333 0.686667 0.690000 0.693333 0.696667 0.700000 0.703333 0.706667 0.710000 0.713333 0.716667 0.720000 0.723333 0.726667 0.730000 0.733333 0.736667 0.740000 0.743333 0.746667 0.750000 0.753333 0.756667 0.760000 0.763333 0.766667 0.770000 0.773333 0.776667 0.780000 0.783333 0.786667 0.790000 0.793333 0.796667 0.800000 0.803333 0.806667 0.810000 0.813333 0.816667 0.820000 0.823333 0.826667 0.830000 0.833333 0.836667 0.840000 0.843333 0.846667 0.850000 0.853333 0.856667 0.860000 0.863333 0.866667 0.870000 0.873333 0.876667 0.880000 0.883333 0.886667 0.890000 0.893333 0.896667 0.900000 0.903333 0.906667 0.910000 0.913333 0.916667 0.920000 0.923333 0.926667 0.930000 0.933333 0.936667 0.940000 0.943333 0.946667 0.950000 0.953333 0.956667 0.960000 0.963333 0.966667 0.970000 0.973333 0.976667 0.980000 0.983333 0.986667 0.990000 0.993333 0.996667 1.000000 
Z_COORDINATES 1 double
0
POINT_DATA 90601 
FIELD FieldData 1 
Concentração 1 90601 double 
0.000000 
0.000000 
0.000000 
0.000000 
0.000000 
0.000000 
0.000000 
0.000000 
0.000000 
0.000000 
0.000000 
0.000000 
0.000000 
0.000000 
0.000000 
0.000000 
0.000000 
0.000000 
0.000000 
0.000000 
0.000000 
0.000000 
0.000000 
0.000000 
0.000000 
0.000000 
0.000000 
0.000000 
0.000000 
0.000000 
0.000000 
0.000000 
0.000000 
0.000000 
0.000000 
0.000000 
0.000000 
0.000000 
0.000000 
0.000000 
0.000000 
0.000000 
0.000000 
0.000000 
0.000000 
0.000000 
0.000000 
0.000000 
0.000000 
0.000000 
0.000000 
0.000000 
0.000000 
0.000000 
0.000000 
0.000000 
0.000000 
0.000000 
0.000000 
0.000000 
0.000000 
0.000000 
0.000000 
0.000000 
0.000000 
0.000000 
0.000000 
0.000000 
0.000000 
0.000000 
0.000000 
0.000000 
0.000000 
0.000000 
0.000000 
0.000000 
0.000000 
0.000000 
0.000000 
0.000000 
0.000000 
0.000000 
0.000000 
0.000000 
0.000000 
0.000000 
0.000000 
0.000000 
0.000000 
0.000000 
0.000000 
0.000000 
0.000000 
0.000000 
0.000000 
0.000000 
0.000000 
0.000000 
0.000000 
0.000000 
0.000000 
0.000000 
0.000000 
0.000000 
0.000000 
0.000000 
0.000000 
0.000001 
0.000001 
0.000001 
0.000001 
0.000001 
0.000001 
0.000001 
0.000001 
0.000001 
0.000001 
0.000001 
0.000001 
0.000001 
0.000001 
0.000001 
0.000001 
0.000002 
0.000002 
0.000002 
0.000002 
0.000002 
0.000002 
0.000002 
0.000002 
0.000003 
0.000003 
0.000003 
0.000003 
0.000003 
0.000003 
0.000004 
0.000004 
0.000004 
0.000004 
0.000005 
0.000005 
0.000005 
0.000006 
0.000006 
0.000006 
0.000007 
0.000007 
0.000007 
0.000008 
0.000008 
0.000009 
0.000009 
0.000009 
0.000010 
0.000011 
0.000011 
0.000012 
0.000012 
0.000013 
0.000014 
0.000014 
0.000015 
0.000016 
0.000016 
0.000017 
0.000018 
0.000019 
0.000020 
0.000021 
0.000022 
0.000023 
0.000024 
0.000025 
0.000026 
0.000027 
0.000028 
0.000030 
0.000031 
0.000032 
0.000034 
0.000035 
0.000037 
0.000038 
0.000040 
0.000041 
0.000043 
0.000045 
0.000046 
0.000048 
0.000050 
0.000052 
0.000054 
0.000056 
0.000058 
0.000060 
0.000062 
0.000064 
0.000067 
0.000069 
0.000071 
0.000074 
0.000076 
0.000079 
0.000081 
0.000084 
0.000087 
0.000089 
0.000092 
0.000095 
0.000098 
0.000101 
0.000104 
0.000107 
0.000110 
0.000113 
0.000116 
0.000120 
0.000123 
0.000126 
0.000130 
0.000133 
0.000136 
0.000140 
0.000143 
0.000147 
0.000150 
0.000154 
0.000158 
0.000161 
0.000165 
0.000169 
0.000172 
0.000176 
0.000180 
0.000184 
0.000188 
0.000191 
0.000195 
0.000199 
0.000203 
0.000207 
0.000211 
0.000214 
0.000218 
0.000222 
0.000226 
0.000230 
0.000233 
0.000237 
0.000241 
0.000245 
0.000248 
0.000252 
0.000256 
0.000259 
0.000263 
0.000266 
0.000270 
0.000273 
0.000277 
0.000280 
0.000283 
0.000286 
0.000290 
0.000293 
0.000296 
0.000299 
0.000302 
0.000305 
0.000307 
0.000310 
0.000313 
0.000315 
0.000318 
0.000320 
0.000323 
0.000325 
0.000327 
0.000329 
0.000331 
0.000333 
0.000335 
0.000337 
0.000338 
0.000340 
0.000341 
0.000343 
0.000344 
0.000345 
0.000346 
0.000347 
0.000348 
0.000349 
0.000349 
0.000350 
0.000350 
0.000350 
0.000351 
0.000351 
0.000000 
0.000000 
0.000000 
0.000000 
0.000000 
0.000000 
0.000000 
0.000000 
0.000000 
0.000000 
0.000000 
0.000000 
0.000000 
0.000000 
0.000000 
0.000000 
0.000000 
0.000000 
0.000000 
0.000000 
0.000000 
0.000000 
0.000000 
0.000000 
0.000000 
0.000000 
0.000000 
0.000000 
0.000000 
0.000000 
0.000000 
0.000000 
0.000000 
0.000000 
0.000000 
0.000000 
0.000000 
0.000000 
0.000000 
0.000000 
0.000000 
0.000000 
0.000000 
0.000000 
0.000000 
0.000000 
0.000000 
0.000000 
0.000000 
0.000000 
0.000000 
0.000000 
0.000000 
0.000000 
0.000000 
0.000000 
0.000000 
0.000000 
0.000000 
0.000000 
0.000000 
0.000000 
0.000000 
0.000000 
0.000000 
0.000000 
0.000000 
0.000000 
0.000000 
0.000000 
0.000000 
0.000000 
0.000000 
0.000000 
0.000000 
0.000000 
0.000000 
0.000000 
0.000000 
0.000000 
0.000000 
0.000000 
0.000000 
0.000000 
0.000000 
0.000000 
0.000000 
0.000000 
0.000000 
0.000000 
0.000000 
0.000000 
0.000000 
0.000000 
0.000000 
0.000000 
0.000000 
0.000001 
0.000001 
0.000001 
0.000001 
0.000001 
0.000001 
0.000001 
0.000001 
0.000001 
0.000001 
0.000001 
0.000001 
0.000001 
0.000001 
0.000001 
0.000001 
0.000002 
0.000002 
0.000002 
0.000002 
0.000002 
0.000002 
0.000002 
0.000003 
0.000003 
0.000003 
0.000003 
0.000003 
0.000004 
0.000004 
0.000004 
0.000004 
0.000005 
0.000005 
0.000005 
0.000005 
0.000006 
0.000006 
0.000007 
0.000007 
0.000007 
0.000008 
0.000008 
0.000009 
0.000009 
0.000010 
0.000010 
0.000011 
0.000012 
0.000012 
0.000013 
0.000014 
0.000015 
0.000015 
0.000016 
0.000017 
0.000018 
0.000019 
0.000020 
0.000021 
0.000022 
0.000023 
0.000025 
0.000026 
0.000027 
0.000029 
0.000030 
0.000032 
0.000033 
0.000035 
0.000036 
0.000038 
0.000040 
0.000042 
0.000044 
0.000046 
0.000048 
0.000050 
0.000052 
0.000055 
0.000057 
0.000060 
0.000062 
0.000065 
0.000068 
0.000071 
0.000074 
0.000077 
0.000080 
0.000083 
0.000086 
0.000090 
0.000093 
0.000097 
0.000101 
0.000104 
0.000108 
0.000112 
0.000116 
0.000121 
0.000125 
0.000129 
0.000134 
0.000139 
0.000143 
0.000148 
0.000153 
0.000158 
0.000164 
0.000169 
0.000174 
0.000180 
0.000185 
0.000191 
0.000197 
0.000203 
0.000209 
0.000215 
0.000221 
0.000227 
0.000234 
0.000240 
0.000247 
0.000253 
0.000260 
0.000267 
0.000274 
0.000281 
0.000288 
0.000295 
0.000302 
0.000309 
0.000317 
0.000324 
0.000331 
0.000339 
0.000346 
0.000354 
0.000361 
0.000369 
0.000377 
0.000384 
0.000392 
0.000400 
0.000407 
0.000415 
0.000423 
0.000430 
0.000438 
0.000446 
0.000453 
0.000461 
0.000468 
0.000476 
0.000483 
0.000491 
0.000498 
0.000506 
0.000513 
0.000520 
0.000527 
0.000534 
0.000541 
0.000548 
0.000555 
0.000562 
0.000568 
0.000575 
0.000581 
0.000587 
0.000594 
0.000600 
0.000606 
0.000611 
0.000617 
0.000622 
0.000628 
0.000633 
0.000638 
0.000643 
0.000647 
0.000652 
0.000656 
0.000661 
0.000665 
0.000668 
0.000672 
0.000676 
0.000679 
0.000682 
0.000685 
0.000687 
0.000690 
0.000692 
0.000694 
0.000696 
0.000698 
0.000699 
0.000701 
0.000702 
0.000702 
0.000703 
0.000704 
0.000704 
0.000000 
0.000000 
0.000000 
0.000000 
0.000000 
0.000000 
0.000000 
0.000000 
0.000000 
0.000000 
0.000000 
0.000000 
0.000000 
0.000000 
0.000000 
0.000000 
0.000000 
0.000000 
0.000000 
0.000000 
0.000000 
0.000000 
0.000000 
0.000000 
0.000000 
0.000000 
0.000000 
0.000000 
0.000000 
0.000000 
0.000000 
0.000000 
0.000000 
0.000000 
0.000000 
0.000000 
0.000000 
0.000000 
0.000000 
0.000000 
0.000000 
0.000000 
0.000000 
0.000000 
0.000000 
0.000000 
0.000000 
0.000000 
0.000000 
0.000000 
0.000000 
0.000000 
0.000000 
0.000000 
0.000000 
0.000000 
0.000000 
0.000000 
0.000000 
0.000000 
0.000000 
0.000000 
0.000000 
0.000000 
0.000000 
0.000000 
0.000000 
0.000000 
0.000000 
0.000000 
0.000000 
0.000000 
0.000000 
0.000000 
0.000000 
0.000000 
0.000000 
0.000000 
0.000000 
0.000000 
0.000000 
0.000000 
0.000000 
0.000000 
0.000000 
0.000000 
0.000000 
0.000000 
0.000000 
0.000000 
0.000000 
0.000000 
0.000001 
0.000001 
0.000001 
0.000001 
0.000001 
0.000001 
0.000001 
0.000001 
0.000001 
0.000001 
0.000001 
0.000001 
0.000001 
0.000001 
0.000001 
0.000002 
0.000002 
0.000002 
0.000002 
0.000002 
0.000002 
0.000002 
0.000003 
0.000003 
0.000003 
0.000003 
0.000003 
0.000004 
0.000004 
0.000004 
0.000004 
0.000005 
0.000005 
0.000005 
0.000006 
0.000006 
0.000006 
0.000007 
0.000007 
0.000008 
0.000008 
0.000009 
0.000009 
0.000010 
0.000011 
0.000011 
0.000012 
0.000013 
0.000013 
0.000014 
0.000015 
0.000016 
0.000017 
0.000018 
0.000019 
0.000020 
0.000021 
0.000022 
0.000023 
0.000025 
0.000026 
0.000027 
0.000029 
0.000030 
0.000032 
0.000034 
0.000035 
0.000037 
0.000039 
0.000041 
0.000043 
0.000045 
0.000048 
0.000050 
0.000053 
0.000055 
0.000058 
0.000060 
0.000063 
0.000066 
0.000069 
0.000073 
0.000076 
0.000079 
0.000083 
0.000086 
0.000090 
0.000094 
0.000098 
0.000102 
0.000107 
0.000111 
0.000116 
0.000120 
0.000125 
0.000130 
0.000136 
0.000141 
0.000146 
0.000152 
0.000158 
0.000164 
0.000170 
0.000176 
0.000182 
0.000189 
0.000196 
0.000203 
0.000210 
0.000217 
0.000224 
0.000232 
0.000239 
0.000247 
0.000255 
0.000263 
0.000272 
0.000280 
0.000289 
0.000297 
0.000306 
0.000315 
0.000325 
0.000334 
0.000344 
0.000353 
0.000363 
0.000373 
0.000383 
0.000393 
0.000403 
0.000414 
0.000424 
0.000435 
0.000445 
0.000456 
0.000467 
0.000478 
0.000489 
0.000500 
0.000512 
0.000523 
0.000534 
0.000546 
0.000557 
0.000569 
0.000580 
0.000592 
0.000603 
0.000615 
0.000626 
0.000638 
0.000649 
0.000661 
0.000672 
0.000684 
0.000695 
0.000707 
0.000718 
0.000729 
0.000741 
0.000752 
0.000763 
0.000774 
0.000785 
0.000795 
0.000806 
0.000817 
0.000827 
0.000837 
0.000847 
0.000857 
0.000867 
0.000877 
0.000886 
0.000895 
0.000904 
0.000913 
0.000922 
0.000930 
0.000939 
0.000947 
0.000955 
0.000962 
0.000969 
0.000976 
0.000983 
0.000990 
0.000996 
0.001002 
0.001008 
0.001013 
0.001019 
0.001024 
0.001028 
0.001033 
0.001037 
0.001040 
0.001044 
0.001047 
0.001050 
0.001052 
0.001054 
0.001056 
0.001058 
0.001059 
0.001060 
0.001061 
0.001061 
0.000000 
0.000000 
0.000000 
0.000000 
0.000000 
0.000000 
0.000000 
0.000000 
0.000000 
0.000000 
0.000000 
0.000000 
0.000000 
0.000000 
0.000000 
0.000000 
0.000000 
0.000000 
0.000000 
0.000000 
0.000000 
0.000000 
0.000000 
0.000000 
0.000000 
0.000000 
0.000000 
0.000000 
0.000000 
0.000000 
0.000000 
0.000000 
0.000000 
0.000000 
0.000000 
0.000000 
0.000000 
0.000000 
0.000000 
0.000000 
0.000000 
0.000000 
0.000000 
0.000000 
0.000000 
0.000000 
0.000000 
0.000000 
0.000000 
0.000000 
0.000000 
0.000000 
0.000000 
0.000000 
0.000000 
0.000000 
0.000000 
0.000000 
0.000000 
0.000000 
0.000000 
0.000000 
0.000000 
0.000000 
0.000000 
0.000000 
0.000000 
0.000000 
0.000000 
0.000000 
0.000000 
0.000000 
0.000000 
0.000000 
0.000000 
0.000000 
0.000000 
0.000000 
0.000000 
0.000000 
0.000000 
0.000000 
0.000000 
0.000000 
0.000000 
0.000000 
0.000000 
0.000000 
0.000001 
0.000001 
0.000001 
0.000001 
0.000001 
0.000001 
0.000001 
0.000001 
0.000001 
0.000001 
0.000001 
0.000001 
0.000001 
0.000001 
0.000001 
0.000002 
0.000002 
0.000002 
0.000002 
0.000002 
0.000002 
0.000002 
0.000003 
0.000003 
0.000003 
0.000003 
0.000003 
0.000004 
0.000004 
0.000004 
0.000005 
0.000005 
0.000005 
0.000006 
0.000006 
0.000006 
0.000007 
0.000007 
0.000008 
0.000008 
0.000009 
0.000009 
0.000010 
0.000011 
0.000011 
0.000012 
0.000013 
0.000013 
0.000014 
0.000015 
0.000016 
0.000017 
0.000018 
0.000019 
0.000020 
0.000021 
0.000023 
0.000024 
0.000025 
0.000027 
0.000028 
0.000030 
0.000032 
0.000033 
0.000035 
0.000037 
0.000039 
0.000041 
0.000043 
0.000046 
0.000048 
0.000050 
0.000053 
0.000056 
0.000058 
0.000061 
0.000064 
0.000068 
0.000071 
0.000074 
0.000078 
0.000082 
0.000085 
0.000089 
0.000094 
0.000098 
0.000102 
0.000107 
0.000112 
0.000117 
0.000122 
0.000127 
0.000132 
0.000138 
0.000144 
0.000150 
0.000156 
0.000162 
0.000169 
0.000176 
0.000183 
0.000190 
0.000197 
0.000205 
0.000213 
0.000221 
0.000229 
0.000237 
0.000246 
0.000255 
0.000264 
0.000273 
0.000282 
0.000292 
0.000302 
0.000312 
0.000322 
0.000333 
0.000344 
0.000355 
0.000366 
0.000377 
0.000389 
0.000401 
0.000413 
0.000425 
0.000437 
0.000450 
0.000463 
0.000476 
0.000489 
0.000502 
0.000515 
0.000529 
0.000543 
0.000557 
0.000571 
0.000585 
0.000600 
0.000614 
0.000629 
0.000644 
0.000658 
0.000673 
0.000688 
0.000704 
0.000719 
0.000734 
0.000749 
0.000765 
0.000780 
0.000796 
0.000811 
0.000827 
0.000842 
0.000858 
0.000873 
0.000889 
0.000904 
0.000920 
0.000935 
0.000950 
0.000966 
0.000981 
0.000996 
0.001011 
0.001026 
0.001040 
0.001055 
0.001069 
0.001084 
0.001098 
0.001112 
0.001125 
0.001139 
0.001152 
0.001165 
0.001178 
0.001191 
0.001203 
0.001215 
0.001227 
0.001239 
0.001250 
0.001261 
0.001272 
0.001282 
0.001293 
0.001302 
0.001312 
0.001321 
0.001330 
0.001338 
0.001346 
0.001354 
0.001361 
0.001368 
0.001375 
0.001381 
0.001387 
0.001392 
0.001397 
0.001402 
0.001406 
0.001410 
0.001413 
0.001416 
0.001419 
0.001421 
0.001423 
0.001424 
0.001425 
0.001425 
0.000000 
0.000000 
0.000000 
0.000000 
0.000000 
0.000000 
0.000000 
0.000000 
0.000000 
0.000000 
0.000000 
0.000000 
0.000000 
0.000000 
0.000000 
0.000000 
0.000000 
0.000000 
0.000000 
0.000000 
0.000000 
0.000000 
0.000000 
0.000000 
0.000000 
0.000000 
0.000000 
0.000000 
0.000000 
0.000000 
0.000000 
0.000000 
0.000000 
0.000000 
0.000000 
0.000000 
0.000000 
0.000000 
0.000000 
0.000000 
0.000000 
0.000000 
0.000000 
0.000000 
0.000000 
0.000000 
0.000000 
0.000000 
0.000000 
0.000000 
0.000000 
0.000000 
0.000000 
0.000000 
0.000000 
0.000000 
0.000000 
0.000000 
0.000000 
0.000000 
0.000000 
0.000000 
0.000000 
0.000000 
0.000000 
0.000000 
0.000000 
0.000000 
0.000000 
0.000000 
0.000000 
0.000000 
0.000000 
0.000000 
0.000000 
0.000000 
0.000000 
0.000000 
0.000000 
0.000000 
0.000000 
0.000000 
0.000000 
0.000000 
0.000000 
0.000001 
0.000001 
0.000001 
0.000001 
0.000001 
0.000001 
0.000001 
0.000001 
0.000001 
0.000001 
0.000001 
0.000001 
0.000001 
0.000001 
0.000002 
0.000002 
0.000002 
0.000002 
0.000002 
0.000002 
0.000002 
0.000003 
0.000003 
0.000003 
0.000003 
0.000003 
0.000004 
0.000004 
0.000004 
0.000004 
0.000005 
0.000005 
0.000005 
0.000006 
0.000006 
0.000007 
0.000007 
0.000008 
0.000008 
0.000009 
0.000009 
0.000010 
0.000010 
0.000011 
0.000012 
0.000013 
0.000013 
0.000014 
0.000015 
0.000016 
0.000017 
0.000018 
0.000019 
0.000020 
0.000022 
0.000023 
0.000024 
0.000026 
0.000027 
0.000029 
0.000030 
0.000032 
0.000034 
0.000036 
0.000038 
0.000040 
0.000042 
0.000045 
0.000047 
0.000049 
0.000052 
0.000055 
0.000058 
0.000061 
0.000064 
0.000067 
0.000071 
0.000074 
0.000078 
0.000082 
0.000086 
0.000090 
0.000094 
0.000099 
0.000104 
0.000108 
0.000114 
0.000119 
0.000124 
0.000130 
0.000136 
0.000142 
0.000148 
0.000154 
0.000161 
0.000168 
0.000175 
0.000183 
0.000190 
0.000198 
0.000206 
0.000214 
0.000223 
0.000232 
0.000241 
0.000250 
0.000260 
0.000270 
0.000280 
0.000290 
0.000301 
0.000312 
0.000323 
0.000334 
0.000346 
0.000358 
0.000370 
0.000383 
0.000395 
0.000409 
0.000422 
0.000435 
0.000449 
0.000463 
0.000478 
0.000492 
0.000507 
0.000523 
0.000538 
0.000554 
0.000569 
0.000586 
0.000602 
0.000619 
0.000635 
0.000652 
0.000670 
0.000687 
0.000705 
0.000722 
0.000740 
0.000759 
0.000777 
0.000795 
0.000814 
0.000833 
0.000852 
0.000871 
0.000890 
0.000909 
0.000928 
0.000948 
0.000967 
0.000986 
0.001006 
0.001026 
0.001045 
0.001065 
0.001084 
0.001104 
0.001123 
0.001143 
0.001162 
0.001182 
0.001201 
0.001220 
0.001239 
0.001258 
0.001277 
0.001295 
0.001314 
0.001332 
0.001350 
0.001368 
0.001386 
0.001404 
0.001421 
0.001438 
0.001455 
0.001471 
0.001487 
0.001503 
0.001519 
0.001534 
0.001549 
0.001564 
0.001578 
0.001592 
0.001605 
0.001619 
0.001631 
0.001644 
0.001656 
0.001667 
0.001678 
0.001689 
0.001699 
0.001709 
0.001718 
0.001727 
0.001735 
0.001743 
0.001750 
0.001757 
0.001763 
0.001769 
0.001774 
0.001779 
0.001783 
0.001787 
0.001790 
0.001793 
0.001795 
0.001797 
0.001798 
0.001798 
0.000000 
0.000000 
0.000000 
0.000000 
0.000000 
0.000000 
0.000000 
0.000000 
0.000000 
0.000000 
0.000000 
0.000000 
0.000000 
0.000000 
0.000000 
0.000000 
0.000000 
0.000000 
0.000000 
0.000000 
0.000000 
0.000000 
0.000000 
0.000000 
0.000000 
0.000000 
0.000000 
0.000000 
0.000000 
0.000000 
0.000000 
0.000000 
0.000000 
0.000000 
0.000000 
0.000000 
0.000000 
0.000000 
0.000000 
0.000000 
0.000000 
0.000000 
0.000000 
0.000000 
0.000000 
0.000000 
0.000000 
0.000000 
0.000000 
0.000000 
0.000000 
0.000000 
0.000000 
0.000000 
0.000000 
0.000000 
0.000000 
0.000000 
0.000000 
0.000000 
0.000000 
0.000000 
0.000000 
0.000000 
0.000000 
0.000000 
0.000000 
0.000000 
0.000000 
0.000000 
0.000000 
0.000000 
0.000000 
0.000000 
0.000000 
0.000000 
0.000000 
0.000000 
0.000000 
0.000000 
0.000000 
0.000000 
0.000001 
0.000001 
0.000001 
0.000001 
0.000001 
0.000001 
0.000001 
0.000001 
0.000001 
0.000001 
0.000001 
0.000001 
0.000001 
0.000001 
0.000001 
0.000002 
0.000002 
0.000002 
0.000002 
0.000002 
0.000002 
0.000003 
0.000003 
0.000003 
0.000003 
0.000003 
0.000004 
0.000004 
0.000004 
0.000004 
0.000005 
0.000005 
0.000005 
0.000006 
0.000006 
0.000007 
0.000007 
0.000008 
0.000008 
0.000009 
0.000009 
0.000010 
0.000011 
0.000011 
0.000012 
0.000013 
0.000014 
0.000014 
0.000015 
0.000016 
0.000017 
0.000018 
0.000020 
0.000021 
0.000022 
0.000024 
0.000025 
0.000026 
0.000028 
0.000030 
0.000031 
0.000033 
0.000035 
0.000037 
0.000039 
0.000042 
0.000044 
0.000046 
0.000049 
0.000052 
0.000054 
0.000057 
0.000061 
0.000064 
0.000067 
0.000071 
0.000074 
0.000078 
0.000082 
0.000086 
0.000091 
0.000095 
0.000100 
0.000105 
0.000110 
0.000115 
0.000121 
0.000127 
0.000133 
0.000139 
0.000145 
0.000152 
0.000159 
0.000166 
0.000173 
0.000181 
0.000189 
0.000197 
0.000205 
0.000214 
0.000223 
0.000232 
0.000242 
0.000252 
0.000262 
0.000272 
0.000283 
0.000294 
0.000305 
0.000317 
0.000329 
0.000341 
0.000354 
0.000367 
0.000380 
0.000394 
0.000408 
0.000422 
0.000437 
0.000451 
0.000467 
0.000482 
0.000498 
0.000514 
0.000531 
0.000548 
0.000565 
0.000583 
0.000600 
0.000618 
0.000637 
0.000656 
0.000675 
0.000694 
0.000714 
0.000733 
0.000754 
0.000774 
0.000795 
0.000816 
0.000837 
0.000858 
0.000880 
0.000902 
0.000924 
0.000946 
0.000968 
0.000991 
0.001014 
0.001037 
0.001060 
0.001083 
0.001106 
0.001129 
0.001153 
0.001176 
0.001200 
0.001224 
0.001247 
0.001271 
0.001295 
0.001319 
0.001342 
0.001366 
0.001390 
0.001413 
0.001436 
0.001460 
0.001483 
0.001506 
0.001529 
0.001552 
0.001574 
0.001597 
0.001619 
0.001641 
0.001663 
0.001684 
0.001705 
0.001726 
0.001747 
0.001767 
0.001787 
0.001807 
0.001826 
0.001845 
0.001863 
0.001881 
0.001899 
0.001916 
0.001933 
0.001949 
0.001965 
0.001981 
0.001996 
0.002010 
0.002024 
0.002037 
0.002050 
0.002062 
0.002074 
0.002085 
0.002096 
0.002106 
0.002115 
0.002124 
0.002132 
0.002140 
0.002147 
0.002153 
0.002159 
0.002164 
0.002169 
0.002172 
0.002176 
0.002178 
0.002180 
0.002182 
0.002182 
0.000000 
0.000000 
0.000000 
0.000000 
0.000000 
0.000000 
0.000000 
0.000000 
0.000000 
0.000000 
0.000000 
0.000000 
0.000000 
0.000000 
0.000000 
0.000000 
0.000000 
0.000000 
0.000000 
0.000000 
0.000000 
0.000000 
0.000000 
0.000000 
0.000000 
0.000000 
0.000000 
0.000000 
0.000000 
0.000000 
0.000000 
0.000000 
0.000000 
0.000000 
0.000000 
0.000000 
0.000000 
0.000000 
0.000000 
0.000000 
0.000000 
0.000000 
0.000000 
0.000000 
0.000000 
0.000000 
0.000000 
0.000000 
0.000000 
0.000000 
0.000000 
0.000000 
0.000000 
0.000000 
0.000000 
0.000000 
0.000000 
0.000000 
0.000000 
0.000000 
0.000000 
0.000000 
0.000000 
0.000000 
0.000000 
0.000000 
0.000000 
0.000000 
0.000000 
0.000000 
0.000000 
0.000000 
0.000000 
0.000000 
0.000000 
0.000000 
0.000000 
0.000000 
0.000000 
0.000000 
0.000001 
0.000001 
0.000001 
0.000001 
0.000001 
0.000001 
0.000001 
0.000001 
0.000001 
0.000001 
0.000001 
0.000001 
0.000001 
0.000001 
0.000002 
0.000002 
0.000002 
0.000002 
0.000002 
0.000002 
0.000002 
0.000003 
0.000003 
0.000003 
0.000003 
0.000003 
0.000004 
0.000004 
0.000004 
0.000005 
0.000005 
0.000005 
0.000006 
0.000006 
0.000006 
0.000007 
0.000007 
0.000008 
0.000008 
0.000009 
0.000010 
0.000010 
0.000011 
0.000012 
0.000013 
0.000013 
0.000014 
0.000015 
0.000016 
0.000017 
0.000018 
0.000020 
0.000021 
0.000022 
0.000023 
0.000025 
0.000026 
0.000028 
0.000030 
0.000032 
0.000033 
0.000035 
0.000037 
0.000040 
0.000042 
0.000044 
0.000047 
0.000050 
0.000052 
0.000055 
0.000058 
0.000062 
0.000065 
0.000069 
0.000072 
0.000076 
0.000080 
0.000084 
0.000089 
0.000093 
0.000098 
0.000103 
0.000108 
0.000114 
0.000119 
0.000125 
0.000131 
0.000137 
0.000144 
0.000151 
0.000158 
0.000165 
0.000173 
0.000181 
0.000189 
0.000198 
0.000206 
0.000215 
0.000225 
0.000234 
0.000244 
0.000255 
0.000265 
0.000276 
0.000288 
0.000300 
0.000312 
0.000324 
0.000337 
0.000350 
0.000363 
0.000377 
0.000392 
0.000406 
0.000421 
0.000437 
0.000452 
0.000468 
0.000485 
0.000502 
0.000519 
0.000537 
0.000555 
0.000573 
0.000592 
0.000612 
0.000631 
0.000651 
0.000672 
0.000692 
0.000713 
0.000735 
0.000757 
0.000779 
0.000801 
0.000824 
0.000847 
0.000871 
0.000895 
0.000919 
0.000943 
0.000968 
0.000993 
0.001019 
0.001044 
0.001070 
0.001096 
0.001122 
0.001149 
0.001176 
0.001202 
0.001230 
0.001257 
0.001284 
0.001312 
0.001339 
0.001367 
0.001395 
0.001423 
0.001451 
0.001479 
0.001507 
0.001535 
0.001563 
0.001591 
0.001618 
0.001646 
0.001674 
0.001702 
0.001729 
0.001757 
0.001784 
0.001811 
0.001838 
0.001864 
0.001891 
0.001917 
0.001943 
0.001968 
0.001994 
0.002019 
0.002043 
0.002067 
0.002091 
0.002115 
0.002138 
0.002161 
0.002183 
0.002205 
0.002226 
0.002247 
0.002267 
0.002287 
0.002306 
0.002325 
0.002343 
0.002360 
0.002377 
0.002393 
0.002409 
0.002424 
0.002439 
0.002452 
0.002466 
0.002478 
0.002490 
0.002501 
0.002511 
0.002521 
0.002530 
0.002538 
0.002546 
0.002552 
0.002558 
0.002564 
0.002568 
0.002572 
0.002575 
0.002577 
0.002579 
0.002580 
0.000000 
0.000000 
0.000000 
0.000000 
0.000000 
0.000000 
0.000000 
0.000000 
0.000000 
0.000000 
0.000000 
0.000000 
0.000000 
0.000000 
0.000000 
0.000000 
0.000000 
0.000000 
0.000000 
0.000000 
0.000000 
0.000000 
0.000000 
0.000000 
0.000000 
0.000000 
0.000000 
0.000000 
0.000000 
0.000000 
0.000000 
0.000000 
0.000000 
0.000000 
0.000000 
0.000000 
0.000000 
0.000000 
0.000000 
0.000000 
0.000000 
0.000000 
0.000000 
0.000000 
0.000000 
0.000000 
0.000000 
0.000000 
0.000000 
0.000000 
0.000000 
0.000000 
0.000000 
0.000000 
0.000000 
0.000000 
0.000000 
0.000000 
0.000000 
0.000000 
0.000000 
0.000000 
0.000000 
0.000000 
0.000000 
0.000000 
0.000000 
0.000000 
0.000000 
0.000000 
0.000000 
0.000000 
0.000000 
0.000000 
0.000000 
0.000000 
0.000000 
0.000000 
0.000001 
0.000001 
0.000001 
0.000001 
0.000001 
0.000001 
0.000001 
0.000001 
0.000001 
0.000001 
0.000001 
0.000001 
0.000001 
0.000001 
0.000002 
0.000002 
0.000002 
0.000002 
0.000002 
0.000002 
0.000002 
0.000003 
0.000003 
0.000003 
0.000003 
0.000004 
0.000004 
0.000004 
0.000004 
0.000005 
0.000005 
0.000005 
0.000006 
0.000006 
0.000007 
0.000007 
0.000008 
0.000008 
0.000009 
0.000009 
0.000010 
0.000011 
0.000011 
0.000012 
0.000013 
0.000014 
0.000015 
0.000016 
0.000017 
0.000018 
0.000019 
0.000020 
0.000022 
0.000023 
0.000024 
0.000026 
0.000028 
0.000029 
0.000031 
0.000033 
0.000035 
0.000037 
0.000039 
0.000042 
0.000044 
0.000047 
0.000049 
0.000052 
0.000055 
0.000058 
0.000061 
0.000065 
0.000068 
0.000072 
0.000076 
0.000080 
0.000085 
0.000089 
0.000094 
0.000099 
0.000104 
0.000109 
0.000115 
0.000121 
0.000127 
0.000133 
0.000140 
0.000146 
0.000154 
0.000161 
0.000169 
0.000177 
0.000185 
0.000194 
0.000202 
0.000212 
0.000221 
0.000231 
0.000241 
0.000252 
0.000263 
0.000274 
0.000286 
0.000298 
0.000311 
0.000323 
0.000337 
0.000350 
0.000364 
0.000379 
0.000394 
0.000409 
0.000425 
0.000441 
0.000458 
0.000475 
0.000492 
0.000510 
0.000529 
0.000547 
0.000567 
0.000586 
0.000606 
0.000627 
0.000648 
0.000670 
0.000692 
0.000714 
0.000737 
0.000760 
0.000784 
0.000808 
0.000833 
0.000858 
0.000883 
0.000909 
0.000935 
0.000961 
0.000988 
0.001016 
0.001044 
0.001072 
0.001100 
0.001129 
0.001158 
0.001187 
0.001217 
0.001247 
0.001277 
0.001308 
0.001338 
0.001369 
0.001401 
0.001432 
0.001464 
0.001495 
0.001527 
0.001559 
0.001591 
0.001624 
0.001656 
0.001688 
0.001721 
0.001753 
0.001785 
0.001818 
0.001850 
0.001882 
0.001915 
0.001947 
0.001979 
0.002011 
0.002042 
0.002074 
0.002105 
0.002136 
0.002167 
0.002197 
0.002228 
0.002258 
0.002287 
0.002316 
0.002345 
0.002374 
0.002402 
0.002429 
0.002456 
0.002483 
0.002509 
0.002535 
0.002560 
0.002585 
0.002609 
0.002632 
0.002655 
0.002677 
0.002698 
0.002719 
0.002740 
0.002759 
0.002778 
0.002796 
0.002813 
0.002830 
0.002846 
0.002861 
0.002875 
0.002889 
0.002902 
0.002914 
0.002925 
0.002935 
0.002945 
0.002953 
0.002961 
0.002968 
0.002974 
0.002979 
0.002984 
0.002987 
0.002990 
0.002992 
0.002993 
0.000000 
0.000000 
0.000000 
0.000000 
0.000000 
0.000000 
0.000000 
0.000000 
0.000000 
0.000000 
0.000000 
0.000000 
0.000000 
0.000000 
0.000000 
0.000000 
0.000000 
0.000000 
0.000000 
0.000000 
0.000000 
0.000000 
0.000000 
0.000000 
0.000000 
0.000000 